version 3
run General-0-20231027-14:00:59-94753
attr configname General
attr datetime 20231027-14:00:59
attr datetimef 20231027-140059
attr experiment General
attr inifile omnetpp.ini
attr iterationvars ""
attr iterationvarsd ""
attr iterationvarsf ""
attr measurement ""
attr network SourceSink
attr processid 94753
attr repetition 0
attr replication #0
attr resultdir results
attr runnumber 0
attr seedset 0
config network SourceSink
config repeat 10
config seed-set 0
config simtime-resolution ps
config **.macMinBE_value 3
config **.macMaxBE_value 4
config **.macMaxCSMABackoffs_value 2
config SourceSink.n 5
config **.cmdenv-log-level info

vector 0 SourceSink stat_avg_energy_cons:vector ETV
attr interpolationmode none
attr recordingmode vector
attr source sig_avg_energy_cons
attr title "Average energy consumption (per received package) (mJ)"
vector 1 SourceSink stat_energy_cons:vector ETV
attr interpolationmode none
attr recordingmode vector
attr source sig_energy_cons
attr title "Total energy consumption (mJ)"
vector 2 SourceSink stat_avg_latency:vector ETV
attr interpolationmode none
attr recordingmode vector
attr source sig_avg_latency
attr title "Average latency (per received package) (ms)"
vector 3 SourceSink stat_pkts_received:vector ETV
attr interpolationmode none
attr recordingmode vector
attr source sig_pkts_received
attr title "Total received packets (on the entire network)"
vector 4 SourceSink.sink[0] stat_pkts_received_net:vector ETV
attr interpolationmode none
attr recordingmode vector
attr source sig_pkts_received_net
attr title "Total amount of collisions received packets (on this sink) "
vector 5 SourceSink stat_avg_delivery_ratio:vector ETV
attr interpolationmode none
attr recordingmode vector
attr source sig_avg_delivery_ratio
attr title "Average delivery ratio (%)"
vector 6 SourceSink stat_avg_retries:vector ETV
attr interpolationmode none
attr recordingmode vector
attr source sig_avg_retries
attr title "Average amount of retries (per received packet)"
vector 7 SourceSink stat_retries:vector ETV
attr interpolationmode none
attr recordingmode vector
attr source sig_retries
attr title "Total amount of retries"
vector 8 SourceSink.sink[1] stat_pkts_received_net:vector ETV
attr interpolationmode none
attr recordingmode vector
attr source sig_pkts_received_net
attr title "Total amount of collisions received packets (on this sink) "
vector 9 SourceSink stat_pkts_timeout:vector ETV
attr interpolationmode none
attr recordingmode vector
attr source sig_pkts_timeout
attr title "Total packtes that timed-out (dropped)"
vector 10 SourceSink stat_pkts_dropped:vector ETV
attr interpolationmode none
attr recordingmode vector
attr source sig_pkts_dropped
attr title "Total dropped packets (dropped due to timeout or collision, on entire network)"
vector 11 SourceSink stat_latency:vector ETV
attr interpolationmode none
attr recordingmode vector
attr source sig_latency
attr title "Total latency (ms)"
vector 12 SourceSink stat_collided:vector ETV
attr interpolationmode none
attr recordingmode vector
attr source sig_collided
attr title "Total collisions (on the entire network)"
vector 13 SourceSink.sink[1] stat_collided_net:vector ETV
attr interpolationmode none
attr recordingmode vector
attr source sig_collided_net
attr title "Total amount of collision (on this channel)"
vector 14 SourceSink.sink[0] stat_collided_net:vector ETV
attr interpolationmode none
attr recordingmode vector
attr source sig_collided_net
attr title "Total amount of collision (on this channel)"
0	1	0	inf
0	3	0.00032	inf
0	4	0.00032	0.2178912
0	5	0.00064	0.2251104
0	7	0.00096	0.2323296
0	8	0.00096	0.2395488
0	9	0.00096	0.246768
0	10	0.00096	0.45744
0	11	0.00096	0.22872
0	12	0.00128	0.2323296
0	13	0.0016	0.2359392
0	14	0.0016	0.2395488
0	15	0.0016	0.2431584
0	16	0.00224	0.246768
0	17	0.0032	0.2503776
0	18	0.00352	0.2539872
0	19	0.00352	0.2575968
0	20	0.00416	0.2612064
0	23	0.00512	0.264816
0	27	0.00544	0.370152
0	28	0.00544	0.246768
0	29	0.00608	0.2491744
0	30	0.0064	0.2515808
0	32	0.00672	0.2539872
0	33	0.00672	0.2563936
0	34	0.00672	0.3266176
0	35	0.00672	0.2449632
0	36	0.008	0.246768
0	37	0.0096	0.2485728
0	42	5	0.2503776
0	44	5.00032	0.2521824
0	45	5.00032	0.3048504
0	46	5.00032	0.24388032
0	47	5.00096	0.24532416
0	48	5.00096	0.246768
0	49	5.00096	0.24821184
0	50	5.00096	0.24965568
0	52	5.00128	0.25109952
0	53	5.00128	0.25254336
0	54	5.00128	0.29467776
0	55	5.00128	0.2455648
0	56	5.0016	0.246768
0	57	5.0016	0.2479712
0	58	5.0016	0.2491744
0	59	5.00256	0.2503776
0	60	5.00288	0.2515808
0	61	5.00352	0.252784
0	62	5.00352	0.2539872
0	63	5.00384	0.2551904
0	64	5.00448	0.2563936
0	67	5.00512	0.2575968
0	68	5.00512	0.2588
0	69	5.00512	0.2600032
0	72	5.0064	0.2612064
0	74	5.00672	0.2963184
0	75	5.00672	0.2539872
0	76	5.008	0.25501851428571
0	77	5.01024	0.25604982857143
0	80	10	0.25708114285714
0	82	10.00032	0.25811245714286
0	83	10.00032	0.25914377142857
0	84	10.00032	0.28923977142857
0	85	10.00032	0.2530848
0	87	10.00064	0.2539872
0	88	10.00064	0.2803212
0	89	10.00064	0.2491744
0	90	10.00128	0.24997653333333
0	91	10.0016	0.25077866666667
0	92	10.00192	0.2515808
0	93	10.00192	0.25238293333333
0	94	10.00224	0.25318506666667
0	95	10.00224	0.2539872
0	96	10.00256	0.25478933333333
0	97	10.00352	0.25559146666667
0	98	10.00352	0.2563936
0	103	10.00544	0.25719573333333
0	105	10.00576	0.28060373333333
0	106	10.00576	0.25254336
0	107	10.00672	0.25326528
0	108	10.00672	0.2539872
0	110	10.00704	0.25470912
0	111	10.00704	0.25543104
0	112	10.00704	0.27649824
0	113	10.00704	0.25136203636364
0	114	10.00736	0.25201832727273
0	115	10.00832	0.25267461818182
0	120	10.01216	0.25333090909091
0	122	10.01248	0.27248290909091
0	123	10.01248	0.249776
0	126	15.00096	0.2503776
0	127	15.00096	0.2509792
0	130	15.00128	0.2515808
0	131	15.00128	0.2521824
0	132	15.00128	0.252784
0	133	15.00128	0.2533856
0	134	15.00128	0.2539872
0	135	15.00128	0.2715432
0	136	15.00128	0.2890992
0	137	15.00128	0.2668608
0	138	15.00128	0.24779931428571
0	139	15.00192	0.24831497142857
0	140	15.00256	0.24883062857143
0	141	15.00256	0.24934628571429
0	142	15.00288	0.24986194285714
0	143	15.0032	0.2503776
0	144	15.00352	0.25089325714286
0	145	15.00384	0.25140891428571
0	146	15.00512	0.25192457142857
0	147	15.00544	0.25244022857143
0	152	15.00576	0.25295588571429
0	154	15.00608	0.25347154285714
0	155	15.00608	0.26851954285714
0	156	15.00608	0.25061824
0	158	15.0064	0.25109952
0	159	15.0064	0.26514432
0	160	15.0064	0.2485728
0	161	15.00672	0.249024
0	162	15.00992	0.2494752
0	167	15.0112	0.2499264
0	169	15.01152	0.2630934
0	170	15.01152	0.24761731764706
0	173	20	0.24804197647059
0	174	20	0.24846663529412
0	175	20	0.24889129411765
0	180	20.00032	0.24931595294118
0	181	20.00032	0.26170842352941
0	182	20.00032	0.27410089411765
0	183	20.00032	0.28649336470588
0	187	20.00064	0.28691802352941
0	188	20.00096	0.28734268235294
0	189	20.0016	0.28776734117647
0	190	20.0016	0.288192
0	191	20.00192	0.28861665882353
0	192	20.00224	0.28904131764706
0	193	20.00256	0.28946597647059
0	194	20.00288	0.28989063529412
0	195	20.0032	0.29031529411765
0	196	20.00384	0.29073995294118
0	197	20.00384	0.29116461176471
0	198	20.00448	0.29158927058824
0	207	20.00544	0.29201392941176
0	209	20.00576	0.3044064
0	210	20.00576	0.28749493333333
0	211	20.00704	0.287896
0	213	20.00736	0.2996
0	214	20.00736	0.28383157894737
0	215	20.00768	0.28421153684211
0	216	20.00832	0.28459149473684
0	221	25	0.28497145263158
0	222	25	0.28535141052632
0	223	25	0.28573136842105
0	227	25.00032	0.28611132631579
0	228	25.00032	0.29719932631579
0	229	25.00032	0.30828732631579
0	230	25.00032	0.31937532631579
0	233	25.00032	0.30340656
0	234	25.00064	0.30376752
0	235	25.00096	0.30412848
0	236	25.00192	0.30448944
0	237	25.00192	0.3048504
0	238	25.00256	0.30521136
0	239	25.00256	0.30557232
0	240	25.00352	0.30593328
0	241	25.00384	0.30629424
0	242	25.00448	0.3066552
0	243	25.00448	0.30701616
0	250	25.0048	0.30737712
0	252	25.00512	0.31791072
0	253	25.00512	0.30277211428571
0	254	25.00544	0.30311588571429
0	255	25.0064	0.30345965714286
0	257	25.00672	0.30380342857143
0	258	25.00672	0.31383542857143
0	259	25.00672	0.29957018181818
0	260	25.00736	0.29989832727273
0	265	30	0.30022647272727
0	266	30	0.30055461818182
0	270	30.00032	0.31013061818182
0	271	30.00032	0.31970661818182
0	274	30.00064	0.32003476363636
0	275	30.00096	0.32036290909091
0	276	30.00096	0.32069105454545
0	277	30.00128	0.3210192
0	278	30.00192	0.32134734545455
0	279	30.00256	0.32167549090909
0	280	30.00256	0.32200363636364
0	281	30.0032	0.32233178181818
0	282	30.00352	0.32265992727273
0	289	30.0048	0.32298807272727
0	291	30.00512	0.32331621818182
0	292	30.00512	0.33289221818182
0	293	30.00512	0.31841864347826
0	295	30.00544	0.31873252173913
0	296	30.00544	0.32789217391304
0	297	30.00544	0.31423
0	298	30.00608	0.3145308
0	299	30.0064	0.3148316
0	300	30.00736	0.3151324
0	301	30.00864	0.3154332
0	306	30.00992	0.315734
0	308	30.01024	0.324512
0	309	30.01024	0.31153152
0	310	30.01056	0.311820288
0	311	30.01152	0.312109056
0	313	30.01184	0.320535936
0	314	30.01184	0.30820763076923
0	319	35.00032	0.30848529230769
0	321	35.00064	0.30876295384615
0	322	35.00064	0.31686572307692
0	323	35.00064	0.30512995555556
0	325	35.00096	0.31293262222222
0	326	35.00096	0.30175645714286
0	327	35.00128	0.30201428571429
0	328	35.0016	0.30227211428571
0	329	35.00192	0.30252994285714
0	330	35.00192	0.30278777142857
0	331	35.00192	0.3030456
0	332	35.00192	0.30330342857143
0	333	35.00256	0.30356125714286
0	334	35.00288	0.30381908571429
0	335	35.0032	0.30407691428571
0	336	35.00416	0.30433474285714
0	337	35.0048	0.30459257142857
0	340	35.00512	0.3048504
0	343	35.00544	0.30510822857143
0	344	35.00544	0.30536605714286
0	347	35.00576	0.31289005714286
0	348	35.00576	0.32041405714286
0	351	35.00608	0.32067188571429
0	353	35.0064	0.32819588571429
0	354	35.0064	0.3168787862069
0	355	35.00704	0.31712772413793
0	356	35.00864	0.31737666206897
0	361	35.01056	0.3176256
0	364	40	0.31787453793104
0	366	40.00032	0.32513908965517
0	367	40.00032	0.31430112
0	368	40.00064	0.31454176
0	370	40.00096	0.3147824
0	371	40.00096	0.3218048
0	372	40.00096	0.311424
0	373	40.00128	0.31165687741936
0	374	40.0016	0.31188975483871
0	375	40.00192	0.31212263225807
0	376	40.00224	0.31235550967742
0	377	40.00256	0.31258838709677
0	378	40.00256	0.31282126451613
0	379	40.00256	0.31305414193548
0	380	40.00288	0.31328701935484
0	381	40.00384	0.31351989677419
0	382	40.00448	0.31375277419355
0	387	40.00544	0.3139856516129
0	390	40.00576	0.31421852903226
0	391	40.00576	0.31445140645161
0	392	40.00576	0.31468428387097
0	393	40.00576	0.32148015483871
0	394	40.00576	0.3114339
0	395	40.0064	0.3116595
0	396	40.00768	0.3118851
0	397	40.00832	0.3121107
0	398	40.00864	0.3123363
0	399	40.00992	0.3125619
0	404	45.00032	0.3127875
0	406	45.00064	0.3130131
0	407	45.00064	0.3132387
0	408	45.00064	0.3198222
0	409	45.00064	0.31013061818182
0	410	45.00096	0.31034938181818
0	411	45.00096	0.31056814545455
0	413	45.00128	0.31078690909091
0	414	45.00128	0.31717090909091
0	415	45.00128	0.30784235294118
0	416	45.0016	0.30805468235294
0	417	45.00192	0.30826701176471
0	418	45.00224	0.30847934117647
0	419	45.00256	0.30869167058824
0	420	45.00256	0.308904
0	421	45.00288	0.30911632941177
0	422	45.0032	0.30932865882353
0	423	45.00384	0.30954098823529
0	424	45.00448	0.30975331764706
0	425	45.0048	0.30996564705882
0	430	45.00576	0.31017797647059
0	431	45.00576	0.31039030588235
0	434	45.00608	0.31658654117647
0	435	45.00608	0.32278277647059
0	438	45.00704	0.32299510588235
0	440	45.00736	0.32919134117647
0	441	45.00736	0.31978587428572
0	442	45.008	0.31999213714286
0	443	45.00864	0.3201984
0	444	45.00928	0.32040466285714
0	451	50.00032	0.32061092571429
0	453	50.00064	0.32081718857143
0	454	50.00064	0.32102345142857
0	455	50.00064	0.32122971428572
0	456	50.00064	0.32724891428572
0	457	50.00064	0.31815866666667
0	459	50.00096	0.3183592
0	460	50.00096	0.3242112
0	461	50.00096	0.31544873513514
0	462	50.00128	0.31564384864865
0	463	50.0016	0.31583896216216
0	464	50.00224	0.31603407567568
0	465	50.00224	0.31622918918919
0	466	50.00256	0.3164243027027
0	467	50.00256	0.31661941621622
0	468	50.0048	0.31681452972973
0	469	50.0048	0.31700964324324
0	470	50.0048	0.31720475675676
0	471	50.0048	0.31739987027027
0	474	50.00512	0.31759498378378
0	477	50.0064	0.3177900972973
0	479	50.00672	0.31798521081081
0	480	50.00672	0.32367904864865
0	481	50.00672	0.31516117894737
0	483	50.00704	0.32070517894737
0	484	50.00704	0.31248196923077
0	485	50.00736	0.31266707692308
0	486	50.00832	0.31285218461539
0	487	50.00864	0.31303729230769
0	492	55	0.3132224
0	493	55	0.31340750769231
0	494	55	0.31359261538462
0	499	55.00032	0.31377772307692
0	500	55.00032	0.31396283076923
0	501	55.00032	0.31936467692308
0	502	55.00032	0.32476652307692
0	503	55.00032	0.33016836923077
0	505	55.00032	0.32191416
0	507	55.00064	0.32209464
0	508	55.00096	0.32227512
0	509	55.0016	0.3224556
0	510	55.00192	0.32263608
0	511	55.00192	0.32281656
0	512	55.00192	0.32299704
0	513	55.00224	0.32317752
0	514	55.00384	0.323358
0	515	55.00384	0.32353848
0	516	55.00416	0.32371896
0	517	55.00448	0.32389944
0	526	55.0048	0.32407992
0	528	55.00512	0.32934672
0	529	55.00512	0.32131387317073
0	530	55.0064	0.32148995121951
0	532	55.00672	0.32166602926829
0	533	55.00672	0.32680437073171
0	534	55.00672	0.31902331428572
0	535	55.00768	0.3191952
0	540	60	0.31936708571429
0	542	60.00032	0.32438308571429
0	543	60.00032	0.31683929302326
0	544	60.00064	0.31700718139535
0	546	60.00096	0.31717506976744
0	547	60.00096	0.31734295813954
0	548	60.00096	0.32224230697675
0	549	60.00096	0.31491861818182
0	550	60.00128	0.31508269090909
0	551	60.00128	0.31524676363636
0	552	60.00128	0.31541083636364
0	553	60.0016	0.31557490909091
0	554	60.00192	0.31573898181818
0	555	60.00192	0.31590305454546
0	556	60.0032	0.31606712727273
0	557	60.00352	0.3162312
0	558	60.00384	0.31639527272727
0	559	60.00448	0.31655934545455
0	562	60.00512	0.31672341818182
0	566	60.00544	0.32151141818182
0	567	60.00544	0.31436672
0	568	60.00576	0.31452714666667
0	570	60.00608	0.31920874666667
0	571	60.00608	0.31226942608696
0	572	60.0064	0.31242636521739
0	573	60.00704	0.31258330434783
0	574	60.00704	0.31274024347826
0	575	60.00704	0.3128971826087
0	576	60.008	0.31305412173913
0	579	60.01024	0.31321106086957
0	582	65.00032	0.313368
0	584	65.00064	0.31352493913044
0	585	65.00064	0.31810476521739
0	586	65.00064	0.31133657872341
0	588	65.00096	0.31149017872341
0	589	65.00096	0.31164377872341
0	590	65.00096	0.31179737872341
0	591	65.00096	0.31627976170213
0	592	65.00096	0.3096906
0	593	65.00128	0.309841
0	594	65.0016	0.3099914
0	595	65.0016	0.3101418
0	596	65.00224	0.3102922
0	597	65.00224	0.3104426
0	598	65.00288	0.310593
0	599	65.0032	0.3107434
0	600	65.00448	0.3108938
0	605	65.00544	0.3110442
0	606	65.00544	0.3111946
0	609	65.00576	0.311345
0	610	65.00576	0.315734
0	611	65.00576	0.320123
0	615	65.00608	0.324512
0	616	65.00608	0.31788930612245
0	617	65.00672	0.31803663673469
0	618	65.00704	0.31818396734694
0	619	65.00704	0.31833129795918
0	620	65.00928	0.31847862857143
0	627	65.01248	0.31862595918367
0	629	65.0128	0.3229253877551
0	630	65.0128	0.31646688
0	633	70.00096	0.316611264
0	635	70.00128	0.320824704
0	636	70.00128	0.31453402352941
0	637	70.00192	0.31467557647059
0	638	70.00192	0.31481712941177
0	639	70.00192	0.31495868235294
0	641	70.00224	0.31908950588235
0	642	70.00224	0.31295316923077
0	643	70.00256	0.313092
0	644	70.00256	0.31323083076923
0	645	70.00256	0.31336966153846
0	646	70.00256	0.31350849230769
0	647	70.00256	0.31364732307692
0	648	70.00288	0.31378615384615
0	649	70.00352	0.31392498461539
0	650	70.00416	0.31406381538462
0	651	70.00416	0.31420264615385
0	652	70.00448	0.31434147692308
0	653	70.0048	0.31448030769231
0	658	70.00672	0.31461913846154
0	659	70.00672	0.31475796923077
0	662	70.00704	0.3148968
0	663	70.00704	0.31894818461538
0	664	70.00704	0.32299956923077
0	667	70.00768	0.3231384
0	669	70.008	0.32327723076923
0	670	70.008	0.32732861538462
0	671	70.008	0.32115260377359
0	672	70.00864	0.32128881509434
0	679	70.01344	0.32142502641509
0	681	70.01376	0.32539996981132
0	682	70.01376	0.31937404444444
0	685	75	0.31950773333333
0	687	75.00032	0.31964142222222
0	688	75.00032	0.31977511111111
0	689	75.00032	0.32367644444444
0	690	75.00032	0.31779141818182
0	691	75.00096	0.31792267636364
0	692	75.00128	0.31805393454545
0	693	75.00128	0.31818519272727
0	694	75.00128	0.31831645090909
0	697	75.0016	0.31844770909091
0	698	75.0016	0.32227810909091
0	699	75.0016	0.32610850909091
0	702	75.00192	0.32623976727273
0	705	75.0048	0.32637102545455
0	706	75.0048	0.32650228363636
0	708	75.00512	0.33033268363636
0	709	75.00512	0.32443388571429
0	710	75.00576	0.3245628
0	711	75.00576	0.32469171428571
0	716	75.00608	0.32482062857143
0	717	75.00608	0.32494954285714
0	719	75.0064	0.32871154285714
0	720	75.0064	0.32294467368421
0	721	75.00704	0.32307132631579
0	722	75.00896	0.32319797894737
0	725	75.01024	0.32332463157895
0	727	75.01056	0.32702063157895
0	728	75.01056	0.32138234482759
0	731	75.01088	0.3215068137931
0	734	80.00032	0.32163128275862
0	735	80.00032	0.32175575172414
0	739	80.00064	0.32188022068965
0	740	80.00064	0.32200468965517
0	741	80.00064	0.32563696551724
0	742	80.00064	0.32926924137931
0	745	80.00096	0.32939371034483
0	746	80.00096	0.32951817931034
0	747	80.00096	0.32964264827586
0	748	80.00096	0.32976711724138
0	749	80.00128	0.3298915862069
0	750	80.00128	0.33001605517241
0	751	80.00128	0.33014052413793
0	752	80.00224	0.33026499310345
0	753	80.00224	0.33038946206896
0	754	80.00256	0.33051393103448
0	755	80.00256	0.3306384
0	756	80.00288	0.33076286896552
0	757	80.00288	0.33088733793103
0	758	80.00288	0.33101180689655
0	759	80.0032	0.33113627586207
0	760	80.00384	0.33126074482759
0	761	80.00416	0.3313852137931
0	768	80.00608	0.33150968275862
0	770	80.0064	0.33514195862069
0	771	80.0064	0.32946158644068
0	772	80.00704	0.32958394576271
0	775	85.00032	0.32970630508474
0	777	85.00064	0.33327701694915
0	778	85.00064	0.3277224
0	779	85.00096	0.32784272
0	780	85.00128	0.32796304
0	782	85.0016	0.32808336
0	783	85.0016	0.32820368
0	784	85.0016	0.33171488
0	785	85.0016	0.32627693114754
0	786	85.00192	0.32639527868852
0	787	85.00224	0.32651362622951
0	788	85.00224	0.32663197377049
0	789	85.00256	0.32675032131147
0	790	85.00256	0.32686866885246
0	791	85.00288	0.32698701639344
0	792	85.00384	0.32710536393442
0	793	85.00416	0.32722371147541
0	794	85.00448	0.32734205901639
0	797	85.00512	0.32746040655738
0	799	85.00544	0.32757875409836
0	800	85.00544	0.33103239344262
0	801	85.00544	0.32569316129032
0	802	85.00576	0.3258096
0	803	85.00576	0.32592603870968
0	806	85.0064	0.32604247741935
0	808	85.00672	0.32944041290322
0	809	85.00672	0.3242112
0	810	85.00704	0.32432579047619
0	811	85.00832	0.32444038095238
0	816	90	0.32455497142857
0	817	90	0.32466956190476
0	820	90.00032	0.32801356190476
0	821	90.00032	0.33135756190476
0	824	90.00064	0.33147215238095
0	825	90.00096	0.33158674285714
0	826	90.00096	0.33170133333333
0	827	90.00096	0.33181592380952
0	830	90.00128	0.33193051428571
0	831	90.00128	0.33527451428571
0	832	90.00128	0.33861851428571
0	835	90.00192	0.3387331047619
0	836	90.00224	0.33884769523809
0	837	90.00256	0.33896228571428
0	838	90.00256	0.33907687619047
0	839	90.00352	0.33919146666666
0	844	90.00544	0.33930605714286
0	850	90.00576	0.33942064761905
0	851	90.00576	0.34276464761905
0	852	90.00576	0.33740895
0	854	90.00608	0.3407007
0	855	90.00608	0.33545915076923
0	856	90.0064	0.33557021538461
0	857	90.00704	0.33568128
0	862	90.01088	0.33579234461538
0	865	90.0112	0.33903345230769
0	866	90.0112	0.33389658181818
0	867	90.01216	0.33400596363636
0	872	95.00032	0.33411534545454
0	873	95.00032	0.33422472727273
0	877	95.00064	0.33433410909091
0	878	95.00064	0.33752610909091
0	879	95.00064	0.34071810909091
0	881	95.00064	0.3356327641791
0	882	95.00096	0.33574051343283
0	883	95.00128	0.33584826268656
0	884	95.00128	0.3359560119403
0	885	95.00128	0.33606376119403
0	886	95.00128	0.33617151044776
0	887	95.00224	0.33627925970149
0	888	95.00224	0.33638700895522
0	889	95.00256	0.33649475820895
0	890	95.0032	0.33660250746268
0	891	95.00448	0.33671025671642
0	892	95.0048	0.33681800597015
0	899	95.00512	0.33692575522388
0	901	95.00544	0.33703350447761
0	902	95.00544	0.33714125373134
0	903	95.00544	0.3402856119403
0	904	95.00544	0.3352814117647
0	906	95.00576	0.33837952941176
0	907	95.00576	0.33347547826087
0	908	95.00736	0.33358010434782
0	909	95.00768	0.33368473043478
0	910	95.0096	0.33378935652174
0	915	95.01184	0.33389398260869
0	917	95.01216	0.3369472
0	918	95.01216	0.33213366857143
0	921	100	0.3322368
0	922	100	0.33233993142857
0	925	100.00032	0.33534953142857
0	926	100.00032	0.33835913142857
0	929	100.00064	0.33846226285714
0	930	100.00128	0.33856539428571
0	931	100.0016	0.33866852571428
0	932	100.0016	0.33877165714285
0	935	100.00192	0.33887478857143
0	936	100.00192	0.34188438857143
0	937	100.00192	0.34489398857143
0	940	100.00224	0.34499712
0	941	100.00224	0.34510025142857
0	942	100.00256	0.34520338285714
0	943	100.00288	0.34530651428571
0	944	100.00416	0.34540964571428
0	945	100.00416	0.34551277714285
0	946	100.00448	0.34561590857143
0	951	100.0048	0.34571904
0	953	100.00512	0.34872864
0	954	100.00512	0.34381696901408
0	959	100.00704	0.34391864788732
0	960	100.00768	0.34402032676056
0	962	100.008	0.34698753802817
0	963	100.008	0.34216826666666
0	964	100.00832	0.34226853333333
0	967	100.01056	0.3423688
0	970	105	0.34246906666666
0	971	105	0.34256933333333
0	972	105	0.3426696
0	976	105.00032	0.34276986666666
0	977	105.00032	0.34569586666666
0	978	105.00032	0.34862186666666
0	979	105.00032	0.35154786666666
0	982	105.00032	0.34673214246575
0	983	105.00064	0.34683103561644
0	984	105.00064	0.34692992876712
0	985	105.00096	0.34702882191781
0	986	105.0016	0.34712771506849
0	987	105.00256	0.34722660821917
0	988	105.00256	0.34732550136986
0	989	105.00256	0.34742439452054
0	990	105.00256	0.34752328767123
0	991	105.00448	0.34762218082191
0	998	105.0048	0.3477210739726
0	1000	105.00512	0.35060699178082
0	1001	105.00512	0.34586905945946
0	1002	105.00608	0.34596661621621
0	1004	105.0064	0.34606417297297
0	1005	105.0064	0.34891109189189
0	1006	105.0064	0.344258944
0	1007	105.00672	0.3443552
0	1008	105.00736	0.344451456
0	1009	105.00864	0.344547712
0	1010	105.00928	0.344643968
0	1015	110.00032	0.344740224
0	1017	110.00064	0.34483648
0	1018	110.00064	0.34764544
0	1019	110.00064	0.34307115789473
0	1020	110.00096	0.34316614736842
0	1021	110.00096	0.3432611368421
0	1023	110.00128	0.34335612631579
0	1024	110.00128	0.34612812631579
0	1025	110.00128	0.34163295584415
0	1026	110.0016	0.34172671168831
0	1027	110.0016	0.34182046753246
0	1028	110.00192	0.34191422337662
0	1029	110.00192	0.34200797922078
0	1030	110.00192	0.34210173506493
0	1031	110.00352	0.34219549090909
0	1032	110.00384	0.34228924675324
0	1033	110.00416	0.3423830025974
0	1034	110.00416	0.34247675844155
0	1037	110.00544	0.34257051428571
0	1041	110.00576	0.34530651428571
0	1042	110.00576	0.3408795076923
0	1043	110.00608	0.34097206153846
0	1045	110.0064	0.34106461538461
0	1046	110.0064	0.34376553846153
0	1047	110.0064	0.33941407594936
0	1048	110.00672	0.33950545822784
0	1049	110.00736	0.33959684050633
0	1054	110.01088	0.33968822278481
0	1056	110.0112	0.34235495696202
0	1057	110.0112	0.33807552
0	1058	110.01184	0.33816576
0	1060	110.01216	0.34079916
0	1061	110.01216	0.33659176296296
0	1066	115.00064	0.33668088888889
0	1067	115.00064	0.33677001481481
0	1070	115.00096	0.33685914074074
0	1071	115.00096	0.33694826666666
0	1072	115.00096	0.33954915555555
0	1073	115.00096	0.34215004444444
0	1074	115.00096	0.33797748292683
0	1075	115.00096	0.33390546506024
0	1076	115.0016	0.33399244337349
0	1077	115.0016	0.33407942168674
0	1078	115.00192	0.3341664
0	1079	115.00224	0.33425337831325
0	1080	115.00256	0.3343403566265
0	1081	115.00256	0.33442733493976
0	1082	115.00288	0.33451431325301
0	1083	115.00288	0.33460129156626
0	1084	115.0032	0.33468826987951
0	1085	115.00352	0.33477524819277
0	1086	115.00352	0.33486222650602
0	1087	115.00384	0.33494920481927
0	1088	115.00416	0.33503618313253
0	1089	115.00512	0.33512316144578
0	1094	115.00608	0.33521013975903
0	1096	115.0064	0.3377483566265
0	1097	115.0064	0.33372754285714
0	1098	115.00768	0.33381348571428
0	1099	115.00768	0.33389942857142
0	1101	115.008	0.33640742857142
0	1102	115.008	0.33244969411764
0	1103	115.00896	0.33253462588235
0	1104	115.01056	0.33261955764705
0	1109	120	0.33270448941176
0	1111	120.00032	0.33278942117647
0	1112	120.00032	0.33287435294117
0	1113	120.00032	0.33295928470588
0	1114	120.00032	0.33543777882353
0	1115	120.00032	0.33153733953488
0	1117	120.00064	0.33162128372093
0	1118	120.00064	0.33407095813953
0	1119	120.00064	0.33023106206896
0	1120	120.00128	0.33031404137931
0	1121	120.0016	0.33039702068965
0	1122	120.00192	0.33048
0	1123	120.00192	0.33056297931034
0	1124	120.00192	0.33064595862069
0	1125	120.00352	0.33072893793103
0	1126	120.00384	0.33081191724138
0	1127	120.00416	0.33089489655172
0	1132	120.00512	0.33097787586206
0	1133	120.00512	0.33106085517241
0	1134	120.00512	0.33114383448275
0	1138	120.00544	0.33356535172413
0	1139	120.00544	0.33598686896551
0	1140	120.00544	0.33840838620689
0	1141	120.00544	0.33456283636363
0	1144	120.00608	0.33464487272727
0	1145	120.00608	0.3347269090909
0	1146	120.0096	0.33480894545454
0	1153	120.01056	0.33489098181818
0	1155	120.01088	0.33728498181818
0	1156	120.01088	0.33349526292134
0	1157	120.01152	0.33357637752809
0	1159	120.01184	0.33594347865168
0	1160	120.01184	0.33221077333333
0	1165	125.00032	0.33229098666666
0	1166	125.00032	0.3323712
0	1169	125.00064	0.33245141333333
0	1170	125.00064	0.33479221333333
0	1171	125.00064	0.33713301333333
0	1174	125.00096	0.33721322666666
0	1175	125.00096	0.33729344
0	1178	125.00128	0.33737365333333
0	1179	125.00128	0.33971445333333
0	1180	125.00128	0.34205525333333
0	1183	125.0016	0.34213546666666
0	1184	125.00224	0.34221568
0	1185	125.00224	0.34229589333333
0	1186	125.00224	0.34237610666666
0	1187	125.00416	0.34245632
0	1188	125.0048	0.34253653333333
0	1193	125.00512	0.34261674666666
0	1198	125.00576	0.34269696
0	1200	125.00608	0.34503776
0	1201	125.00608	0.34124613626373
0	1202	125.00704	0.34132546813186
0	1203	125.00768	0.3414048
0	1204	125.00768	0.34148413186813
0	1207	125.008	0.3437992087912
0	1208	125.008	0.34611428571428
0	1217	130.00032	0.34619361758241
0	1219	130.00064	0.34627294945054
0	1220	130.00064	0.34858802637362
0	1221	130.00064	0.34479902608695
0	1222	130.00096	0.34487749565217
0	1223	130.00128	0.34495596521739
0	1224	130.00128	0.3450344347826
0	1225	130.00128	0.34511290434782
0	1228	130.0016	0.34519137391304
0	1229	130.0016	0.34526984347826
0	1230	130.0016	0.34534831304347
0	1231	130.0016	0.34763822608695
0	1232	130.0016	0.34992813913043
0	1235	130.00224	0.35000660869565
0	1236	130.00256	0.35008507826086
0	1237	130.00256	0.35016354782608
0	1238	130.00352	0.3502420173913
0	1239	130.00384	0.35032048695652
0	1240	130.00416	0.35039895652173
0	1241	130.00448	0.35047742608695
0	1244	130.00576	0.35055589565217
0	1249	130.0064	0.35063436521739
0	1251	130.00672	0.3507128347826
0	1252	130.00672	0.35300274782608
0	1253	130.00672	0.34920701935483
0	1255	130.00704	0.34928464516129
0	1256	130.00704	0.35154993548387
0	1257	130.00704	0.34781004255319
0	1262	135.00064	0.34788684255319
0	1263	135.00064	0.34796364255319
0	1264	135.00064	0.34804044255319
0	1268	135.00096	0.34811724255319
0	1269	135.00096	0.34819404255319
0	1270	135.00096	0.35043523404255
0	1271	135.00096	0.35267642553191
0	1272	135.00096	0.35491761702127
0	1275	135.00096	0.35118164210526
0	1276	135.00128	0.35125763368421
0	1277	135.00128	0.35133362526315
0	1278	135.00192	0.3514096168421
0	1279	135.00192	0.35148560842105
0	1280	135.00256	0.3515616
0	1281	135.00288	0.35163759157894
0	1282	135.00288	0.35171358315789
0	1283	135.0032	0.35178957473684
0	1284	135.00384	0.35186556631578
0	1285	135.0048	0.35194155789473
0	1286	135.00512	0.35201754947368
0	1293	135.00576	0.35209354105263
0	1296	135.00608	0.35431114105263
0	1297	135.00608	0.3506204
0	1298	135.00704	0.3506956
0	1299	135.00704	0.3507708
0	1300	135.008	0.350846
0	1301	135.00896	0.3509212
0	1306	140.00032	0.3509964
0	1308	140.00064	0.3510716
0	1309	140.00064	0.3532661
0	1310	140.00064	0.34962418144329
0	1311	140.0016	0.34969860618556
0	1312	140.0016	0.34977303092783
0	1313	140.00192	0.3498474556701
0	1314	140.00192	0.34992188041237
0	1315	140.00192	0.34999630515463
0	1316	140.00192	0.3500707298969
0	1317	140.00192	0.35014515463917
0	1321	140.00224	0.35021957938144
0	1322	140.00224	0.3523914556701
0	1323	140.00224	0.35456333195876
0	1324	140.00224	0.35673520824742
0	1328	140.00384	0.35680963298969
0	1329	140.00448	0.35688405773195
0	1330	140.0048	0.35695848247422
0	1331	140.0048	0.35703290721649
0	1334	140.00576	0.35710733195876
0	1335	140.00608	0.35718175670103
0	1342	140.00768	0.35725618144329
0	1344	140.008	0.35733060618556
0	1345	140.008	0.35950248247422
0	1346	140.008	0.35583408979591
0	1347	140.00928	0.35590775510204
0	1349	140.0096	0.35805746938775
0	1350	140.0096	0.35444072727272
0	1355	145	0.35451364848484
0	1357	145.00032	0.35458656969696
0	1358	145.00032	0.35671456969696
0	1359	145.00032	0.353147424
0	1361	145.00064	0.355254144
0	1362	145.00064	0.35173677623762
0	1363	145.0016	0.35180825346534
0	1364	145.0016	0.35187973069306
0	1365	145.0016	0.35195120792079
0	1366	145.0016	0.35202268514851
0	1367	145.0016	0.35209416237623
0	1368	145.00192	0.35216563960396
0	1369	145.00192	0.35223711683168
0	1370	145.00224	0.3523085940594
0	1371	145.00256	0.35238007128712
0	1372	145.00256	0.35245154851485
0	1373	145.00416	0.35252302574257
0	1374	145.00448	0.35259450297029
0	1379	145.00512	0.35266598019801
0	1381	145.00544	0.35475184158415
0	1382	145.00544	0.35127388235294
0	1383	145.00576	0.35134465882352
0	1384	145.00608	0.35141543529411
0	1386	145.0064	0.3514862117647
0	1387	145.0064	0.35355162352941
0	1388	145.0064	0.35011908349514
0	1389	145.00704	0.35018917281553
0	1390	145.00704	0.35025926213592
0	1391	145.00736	0.35032935145631
0	1396	145.01248	0.35039944077669