version 3
run General-0-20231027-14:16:07-46105
attr configname General
attr datetime 20231027-14:16:07
attr datetimef 20231027-141607
attr experiment Multi_C2_N5
attr inifile omnetpp.ini
attr iterationvars ""
attr iterationvarsd ""
attr iterationvarsf ""
attr measurement ""
attr network SourceSink
attr processid 46105
attr repetition 0
attr replication #0
attr resultdir results
attr runnumber 0
attr seedset 0
config network SourceSink
config repeat 10
config seed-set 0
config simtime-resolution ps
config **.macMinBE_value 3
config **.macMaxBE_value 4
config **.macMaxCSMABackoffs_value 2
config SourceSink.n 5
config **.cmdenv-log-level info

vector 0 SourceSink stat_avg_energy_cons:vector ETV
attr interpolationmode none
attr recordingmode vector
attr source sig_avg_energy_cons
attr title "Average energy consumption (per received package) (mJ)"
vector 1 SourceSink stat_energy_cons:vector ETV
attr interpolationmode none
attr recordingmode vector
attr source sig_energy_cons
attr title "Total energy consumption (mJ)"
vector 2 SourceSink stat_avg_latency:vector ETV
attr interpolationmode none
attr recordingmode vector
attr source sig_avg_latency
attr title "Average latency (per received package) (ms)"
vector 3 SourceSink stat_pkts_received:vector ETV
attr interpolationmode none
attr recordingmode vector
attr source sig_pkts_received
attr title "Total received packets (on the entire network)"
vector 4 SourceSink.sink[0] stat_pkts_received_net:vector ETV
attr interpolationmode none
attr recordingmode vector
attr source sig_pkts_received_net
attr title "Total amount of collisions received packets (on this sink) "
vector 5 SourceSink stat_avg_delivery_ratio:vector ETV
attr interpolationmode none
attr recordingmode vector
attr source sig_avg_delivery_ratio
attr title "Average delivery ratio (%)"
vector 6 SourceSink stat_avg_retries:vector ETV
attr interpolationmode none
attr recordingmode vector
attr source sig_avg_retries
attr title "Average amount of retries (per received packet)"
vector 7 SourceSink stat_retries:vector ETV
attr interpolationmode none
attr recordingmode vector
attr source sig_retries
attr title "Total amount of retries"
vector 8 SourceSink.sink[1] stat_pkts_received_net:vector ETV
attr interpolationmode none
attr recordingmode vector
attr source sig_pkts_received_net
attr title "Total amount of collisions received packets (on this sink) "
vector 9 SourceSink stat_pkts_timeout:vector ETV
attr interpolationmode none
attr recordingmode vector
attr source sig_pkts_timeout
attr title "Total packtes that timed-out (dropped)"
vector 10 SourceSink stat_pkts_dropped:vector ETV
attr interpolationmode none
attr recordingmode vector
attr source sig_pkts_dropped
attr title "Total dropped packets (dropped due to timeout or collision, on entire network)"
vector 11 SourceSink stat_latency:vector ETV
attr interpolationmode none
attr recordingmode vector
attr source sig_latency
attr title "Total latency (ms)"
vector 12 SourceSink stat_collided:vector ETV
attr interpolationmode none
attr recordingmode vector
attr source sig_collided
attr title "Total collisions (on the entire network)"
vector 13 SourceSink.sink[1] stat_collided_net:vector ETV
attr interpolationmode none
attr recordingmode vector
attr source sig_collided_net
attr title "Total amount of collision (on this channel)"
vector 14 SourceSink.sink[0] stat_collided_net:vector ETV
attr interpolationmode none
attr recordingmode vector
attr source sig_collided_net
attr title "Total amount of collision (on this channel)"
0	1	0	inf
0	3	0.00032	inf
0	4	0.00032	0.2178912
0	5	0.00064	0.2251104
0	7	0.00096	0.2323296
0	8	0.00096	0.2395488
0	9	0.00096	0.246768
0	10	0.00096	0.45744
0	11	0.00096	0.22872
0	12	0.00128	0.2323296
0	13	0.0016	0.2359392
0	14	0.0016	0.2395488
0	15	0.0016	0.2431584
0	16	0.00224	0.246768
0	17	0.0032	0.2503776
0	18	0.00352	0.2539872
0	19	0.00352	0.2575968
0	20	0.00416	0.2612064
0	23	0.00512	0.264816
0	26	0.00608	0.2684256
0	29	0.0064	0.2720352
0	30	0.0064	0.3773712
0	31	0.0064	0.2515808
0	32	0.00672	0.2539872
0	33	0.00672	0.2563936
0	34	0.00704	0.2588
0	35	0.00768	0.2612064
0	36	0.0096	0.2636128
0	41	0.01152	0.2660192
0	44	0.01184	0.3362432
0	45	0.01184	0.2521824
0	50	5	0.2539872
0	51	5	0.255792
0	52	5	0.2575968
0	57	5.00032	0.2594016
0	58	5.00032	0.3120696
0	59	5.00032	0.3647376
0	60	5.00032	0.4174056
0	64	5.00096	0.4192104
0	65	5.00096	0.4210152
0	66	5.00128	0.42282
0	67	5.00128	0.4246248
0	68	5.00128	0.4264296
0	69	5.0016	0.4282344
0	70	5.00192	0.4300392
0	71	5.00224	0.431844
0	72	5.00288	0.4336488
0	73	5.0032	0.4354536
0	74	5.00384	0.4372584
0	75	5.00416	0.4390632
0	76	5.00448	0.440868
0	85	5.0048	0.4426728
0	86	5.0048	0.4444776
0	90	5.00512	0.4971456
0	91	5.00512	0.5498136
0	93	5.00512	0.43985088
0	94	5.00736	0.44129472
0	101	5.01216	0.44273856
0	103	5.01248	0.48487296
0	104	5.01248	0.4040608
0	107	10	0.405264
0	110	10.00032	0.4064672
0	111	10.00032	0.4415792
0	112	10.00032	0.37849645714286
0	113	10.00064	0.37952777142857
0	114	10.00096	0.38055908571429
0	115	10.00096	0.3815904
0	116	10.00192	0.38262171428571
0	117	10.00224	0.38365302857143
0	118	10.00224	0.38468434285714
0	119	10.00256	0.38571565714286
0	120	10.00256	0.38674697142857
0	121	10.00384	0.38777828571429
0	122	10.00384	0.3888096
0	123	10.00416	0.38984091428571
0	124	10.00416	0.39087222857143
0	125	10.00448	0.39190354285714
0	130	10.0048	0.39293485714286
0	132	10.00512	0.42303085714286
0	133	10.00512	0.370152
0	134	10.00544	0.3710544
0	135	10.00576	0.3719568
0	136	10.00672	0.3728592
0	137	10.00672	0.3737616
0	138	10.00736	0.374664
0	140	10.00768	0.400998
0	141	10.00768	0.35644266666667
0	142	10.00896	0.3572448
0	143	10.00928	0.35804693333333
0	148	15	0.35884906666667
0	149	15	0.3596512
0	152	15.00032	0.36045333333333
0	153	15.00032	0.38386133333333
0	154	15.00032	0.40726933333333
0	157	15.00064	0.40807146666667
0	158	15.00096	0.4088736
0	159	15.0016	0.40967573333333
0	160	15.0016	0.41047786666667
0	161	15.0016	0.41128
0	162	15.0016	0.41208213333333
0	165	15.00192	0.41288426666667
0	166	15.00192	0.43629226666667
0	167	15.00192	0.45970026666667
0	170	15.00224	0.4605024
0	171	15.00224	0.46130453333333
0	172	15.00288	0.46210666666667
0	173	15.00288	0.4629088
0	178	15.00544	0.46371093333333
0	179	15.00576	0.46451306666667
0	184	15.00672	0.4653152
0	187	15.00704	0.46611733333333
0	188	15.00704	0.48952533333333
0	189	15.00704	0.4405728
0	190	15.00832	0.44129472
0	195	20	0.44201664
0	196	20	0.44273856
0	200	20.00032	0.46380576
0	201	20.00032	0.48487296
0	202	20.00032	0.4407936
0	204	20.00064	0.44144989090909
0	205	20.00064	0.44210618181818
0	206	20.00096	0.44276247272727
0	207	20.00096	0.44341876363636
0	208	20.00128	0.44407505454545
0	209	20.0016	0.44473134545455
0	210	20.0016	0.44538763636364
0	211	20.00224	0.44604392727273
0	212	20.00256	0.44670021818182
0	213	20.00352	0.44735650909091
0	214	20.00384	0.4480128
0	215	20.00448	0.44866909090909
0	222	20.0048	0.44932538181818
0	225	20.00512	0.46847738181818
0	226	20.00512	0.4294376
0	227	20.00544	0.4300392
0	228	20.00544	0.4306408
0	229	20.00608	0.4312424
0	230	20.00896	0.431844
0	231	20.00896	0.4324456
0	232	20.00928	0.4330472
0	237	20.01024	0.4336488
0	239	20.01056	0.4512048
0	240	20.01056	0.41649673846154
0	243	25	0.41705206153846
0	244	25	0.41760738461538
0	245	25	0.41816270769231
0	249	25.00032	0.43436824615385
0	250	25.00032	0.45057378461538
0	251	25.00032	0.46677932307692
0	252	25.00032	0.43343794285714
0	255	25.00064	0.4339536
0	256	25.00064	0.43446925714286
0	257	25.00096	0.43498491428571
0	258	25.00096	0.43550057142857
0	259	25.00192	0.43601622857143
0	260	25.00192	0.43653188571429
0	261	25.00256	0.43704754285714
0	262	25.0032	0.4375632
0	263	25.00352	0.43807885714286
0	264	25.00352	0.43859451428571
0	265	25.00352	0.43911017142857
0	266	25.00384	0.43962582857143
0	273	25.0048	0.44014148571429
0	276	25.00512	0.44065714285714
0	277	25.00512	0.45570514285714
0	278	25.00512	0.4253248
0	279	25.00608	0.42580608
0	280	25.00736	0.42628736
0	281	25.008	0.42676864
0	282	25.00832	0.42724992
0	287	30	0.4277312
0	288	30	0.42821248
0	289	30	0.42869376
0	294	30.00032	0.44273856
0	295	30.00032	0.45678336
0	296	30.00032	0.47082816
0	300	30.00128	0.47130944
0	301	30.0016	0.47179072
0	302	30.00192	0.472272
0	303	30.00256	0.47275328
0	304	30.00256	0.47323456
0	305	30.00256	0.47371584
0	306	30.00352	0.47419712
0	307	30.00448	0.4746784
0	316	30.00544	0.47515968
0	319	30.00576	0.47564096
0	320	30.00576	0.48968576
0	321	30.00576	0.4590804
0	322	30.00608	0.4595316
0	323	30.00736	0.4599828
0	324	30.00768	0.460434
0	325	30.00832	0.4608852
0	326	30.00864	0.4613364
0	327	30.00992	0.4617876
0	332	30.0128	0.4622388
0	334	30.01312	0.4754058
0	335	30.01312	0.44744075294118
0	338	35.00032	0.44786541176471
0	340	35.00064	0.44829007058824
0	341	35.00064	0.46068254117647
0	342	35.00064	0.43508906666667
0	343	35.00096	0.43549013333333
0	344	35.00096	0.4358912
0	346	35.00128	0.43629226666667
0	347	35.00128	0.44799626666667
0	348	35.00128	0.42441751578947
0	349	35.0016	0.42479747368421
0	350	35.00192	0.42517743157895
0	351	35.00192	0.42555738947368
0	352	35.00192	0.42593734736842
0	353	35.00192	0.42631730526316
0	354	35.00384	0.4266972631579
0	355	35.00448	0.42707722105263
0	356	35.00448	0.42745717894737
0	359	35.00512	0.42783713684211
0	360	35.00544	0.42821709473684
0	361	35.00544	0.42859705263158
0	364	35.00576	0.42897701052632
0	367	35.00608	0.44006501052632
0	368	35.00608	0.41806176
0	369	35.00672	0.41842272
0	370	35.00672	0.41878368
0	371	35.00704	0.41914464
0	372	35.00928	0.4195056
0	377	35.01184	0.41986656
0	380	35.01216	0.43040016
0	381	35.01216	0.40990491428572
0	386	40.00064	0.41024868571429
0	388	40.00096	0.41059245714286
0	389	40.00096	0.41093622857143
0	390	40.00096	0.41128
0	391	40.00096	0.421312
0	392	40.00096	0.40216145454546
0	394	40.00128	0.4024896
0	395	40.00128	0.4120656
0	396	40.00128	0.39414970434783
0	397	40.0016	0.3944635826087
0	398	40.0016	0.39477746086957
0	399	40.00224	0.39509133913044
0	400	40.00224	0.39540521739131
0	401	40.00224	0.39571909565217
0	402	40.00256	0.39603297391304
0	403	40.00256	0.39634685217391
0	404	40.00288	0.39666073043478
0	405	40.00352	0.39697460869565
0	406	40.00416	0.39728848695652
0	407	40.00416	0.39760236521739
0	408	40.00448	0.39791624347826
0	409	40.00512	0.39823012173913
0	412	40.00544	0.398544
0	416	40.00576	0.40770365217391
0	417	40.00576	0.390716
0	418	40.00608	0.3910168
0	419	40.00672	0.3913176
0	421	40.00704	0.4000956
0	422	40.00704	0.384091776
0	423	40.008	0.384380544
0	428	45	0.384669312
0	429	45	0.38495808
0	430	45	0.385246848
0	437	45.00032	0.385535616
0	438	45.00032	0.385824384
0	439	45.00032	0.394251264
0	440	45.00032	0.402678144
0	441	45.00032	0.411105024
0	445	45.00096	0.411393792
0	446	45.0016	0.41168256
0	447	45.00192	0.411971328
0	448	45.00224	0.412260096
0	449	45.00224	0.412548864
0	450	45.00256	0.412837632
0	451	45.00256	0.4131264
0	452	45.00288	0.413415168
0	453	45.00416	0.413703936
0	454	45.00416	0.413992704
0	467	45.00576	0.414281472
0	469	45.00608	0.422708352
0	470	45.00608	0.40645033846154
0	471	45.00672	0.406728
0	472	45.00672	0.40700566153846
0	474	45.00704	0.41510843076923
0	475	45.00704	0.39973404444445
0	476	45.00896	0.40000142222222
0	481	50.00064	0.4002688
0	482	50.00064	0.40053617777778
0	486	50.00096	0.40080355555556
0	487	50.00096	0.40860622222222
0	488	50.00096	0.41640888888889
0	489	50.00096	0.40153714285714
0	491	50.0016	0.40179497142857
0	492	50.0016	0.4020528
0	493	50.00192	0.40231062857143
0	494	50.00224	0.40256845714286
0	495	50.00224	0.40282628571429
0	496	50.00224	0.40308411428572
0	497	50.00224	0.40334194285714
0	498	50.00256	0.40359977142857
0	499	50.00416	0.4038576
0	500	50.0048	0.40411542857143
0	507	50.00544	0.40437325714286
0	508	50.00544	0.40463108571429
0	512	50.00576	0.41215508571429
0	513	50.00576	0.41967908571429
0	514	50.00576	0.40520739310345
0	516	50.00608	0.40545633103448
0	517	50.0064	0.40570526896552
0	518	50.00736	0.40595420689655
0	519	50.00832	0.40620314482759
0	520	50.00928	0.40645208275862
0	521	50.0096	0.40670102068966
0	528	55	0.40694995862069
0	530	55.00032	0.41421451034483
0	531	55.00032	0.40040736
0	532	55.00096	0.400648
0	533	55.00128	0.40088864
0	534	55.0016	0.40112928
0	535	55.00192	0.40136992
0	536	55.00224	0.40161056
0	537	55.00224	0.4018512
0	539	55.00256	0.40209184
0	540	55.00256	0.40233248
0	541	55.00256	0.40257312
0	542	55.00256	0.40281376
0	543	55.00256	0.40983616
0	544	55.00256	0.39661563870968
0	545	55.00352	0.39684851612903
0	546	55.00384	0.39708139354839
0	547	55.00416	0.39731427096774
0	550	55.00544	0.3975471483871
0	551	55.00544	0.39778002580645
0	553	55.00576	0.40457589677419
0	554	55.00576	0.3919329
0	555	55.00608	0.3921585
0	556	55.00608	0.3923841
0	559	55.00736	0.3926097
0	560	55.00864	0.3928353
0	561	55.00896	0.3930609
0	563	55.00928	0.3996444
0	564	55.00928	0.38753396363636
0	565	55.00992	0.38775272727273
0	570	60	0.38797149090909
0	573	60.00032	0.38819025454546
0	574	60.00032	0.39457425454546
0	575	60.00032	0.38296912941177
0	576	60.00096	0.38318145882353
0	577	60.00096	0.3833937882353
0	578	60.00128	0.38360611764706
0	579	60.00128	0.38381844705882
0	580	60.0016	0.38403077647059
0	581	60.0016	0.38424310588235
0	582	60.00192	0.38445543529412
0	583	60.00192	0.38466776470588
0	584	60.00256	0.38488009411765
0	585	60.00352	0.38509242352941
0	586	60.00384	0.38530475294118
0	587	60.00384	0.38551708235294
0	592	60.0048	0.38572941176471
0	594	60.00512	0.38594174117647
0	595	60.00512	0.39213797647059
0	596	60.00512	0.38093403428572
0	597	60.00576	0.38114029714286
0	598	60.00704	0.38134656
0	599	60.00704	0.38155282285714
0	601	60.00736	0.38175908571429
0	602	60.00736	0.38196534857143
0	603	60.00736	0.38217161142857
0	604	60.00736	0.38819081142857
0	605	60.00736	0.37740773333333
0	606	60.008	0.37760826666667
0	607	60.00832	0.3778088
0	612	65	0.37800933333333
0	615	65.00032	0.38386133333333
0	616	65.00032	0.3734867027027
0	617	65.00192	0.37368181621622
0	618	65.00192	0.37387692972973
0	619	65.00224	0.37407204324324
0	620	65.00256	0.37426715675676
0	621	65.00256	0.37446227027027
0	622	65.00256	0.37465738378379
0	623	65.00256	0.3748524972973
0	624	65.00256	0.37504761081081
0	625	65.0032	0.37524272432433
0	626	65.00384	0.37543783783784
0	627	65.00416	0.37563295135135
0	628	65.00416	0.37582806486487
0	629	65.00416	0.37602317837838
0	630	65.00448	0.37621829189189
0	635	65.0048	0.37641340540541
0	638	65.00512	0.38210724324324
0	639	65.00512	0.37205178947369
0	640	65.00672	0.37224176842105
0	641	65.00672	0.37243174736842
0	642	65.00704	0.37262172631579
0	643	65.00736	0.37281170526316
0	644	65.00768	0.37300168421053
0	645	65.008	0.3731916631579
0	646	65.00832	0.37338164210526
0	651	65.0096	0.37357162105263
0	654	65.00992	0.37911562105263
0	655	65.00992	0.36939470769231
0	656	65.01248	0.36957981538462
0	661	70	0.36976492307692
0	664	70.00032	0.36995003076923
0	665	70.00032	0.37013513846154
0	666	70.00032	0.37553698461539
0	667	70.00032	0.36614856
0	668	70.00096	0.36632904
0	669	70.00128	0.36650952
0	670	70.00128	0.36669
0	671	70.0016	0.36687048
0	672	70.00192	0.36705096
0	673	70.00256	0.36723144
0	674	70.00256	0.36741192
0	675	70.00256	0.3675924
0	676	70.00288	0.36777288
0	677	70.0032	0.36795336
0	678	70.00352	0.36813384
0	679	70.00384	0.36831432
0	680	70.00416	0.3684948
0	685	70.0048	0.36867528
0	687	70.00512	0.36885576
0	688	70.00512	0.37412256
0	689	70.00512	0.3649976195122
0	690	70.00544	0.36517369756098
0	691	70.00608	0.36534977560976
0	693	70.0064	0.36552585365854
0	694	70.0064	0.37066419512195
0	695	70.0064	0.36183885714286
0	696	70.00672	0.36201074285714
0	697	70.00672	0.36218262857143
0	698	70.00704	0.36235451428572
0	703	75	0.3625264
0	705	75.00032	0.36269828571429
0	706	75.00032	0.36287017142857
0	707	75.00032	0.36788617142857
0	708	75.00032	0.35933067906977
0	710	75.00064	0.35949856744186
0	711	75.00064	0.36439791627907
0	712	75.00064	0.35611614545455
0	713	75.00096	0.35628021818182
0	714	75.00096	0.35644429090909
0	715	75.0016	0.35660836363636
0	716	75.00192	0.35677243636364
0	717	75.00192	0.35693650909091
0	718	75.00224	0.35710058181818
0	719	75.00256	0.35726465454546
0	720	75.00256	0.35742872727273
0	721	75.00352	0.3575928
0	722	75.00384	0.35775687272727
0	723	75.00416	0.35792094545455
0	724	75.00448	0.35808501818182
0	729	75.00512	0.35824909090909
0	730	75.00512	0.35841316363636
0	734	75.00544	0.35857723636364
0	735	75.00544	0.36336523636364
0	736	75.00544	0.36815323636364
0	739	75.00576	0.36831730909091
0	740	75.00768	0.36848138181818
0	747	80.00096	0.36864545454546
0	748	80.00096	0.36880952727273
0	749	80.00096	0.3689736
0	755	80.00128	0.36913767272727
0	756	80.00128	0.37392567272727
0	757	80.00128	0.37871367272727
0	758	80.00128	0.38350167272727
0	762	80.0016	0.38366574545455
0	763	80.0016	0.38382981818182
0	764	80.00192	0.38399389090909
0	765	80.00192	0.38415796363636
0	766	80.00224	0.38432203636364
0	767	80.00224	0.38448610909091
0	768	80.00256	0.38465018181818
0	769	80.0032	0.38481425454545
0	770	80.00352	0.38497832727273
0	771	80.00416	0.3851424
0	772	80.00416	0.38530647272727
0	773	80.00448	0.38547054545455
0	774	80.0048	0.38563461818182
0	775	80.00544	0.38579869090909
0	786	80.0064	0.38596276363636
0	788	80.00672	0.39075076363636
0	789	80.00672	0.38206741333333
0	790	80.00736	0.38222784
0	791	80.00864	0.38238826666667
0	793	80.00896	0.38706986666667
0	794	80.00896	0.37865530434783
0	799	85.00032	0.37881224347826
0	802	85.00064	0.3789691826087
0	803	85.00064	0.37912612173913
0	804	85.00064	0.38370594782609
0	805	85.00064	0.37554199148936
0	806	85.00096	0.37569559148936
0	807	85.00096	0.37584919148936
0	808	85.00128	0.37600279148936
0	809	85.00128	0.37615639148936
0	810	85.00128	0.37630999148936
0	811	85.00224	0.37646359148936
0	812	85.00224	0.37661719148936
0	813	85.00224	0.37677079148936
0	814	85.00256	0.37692439148936
0	815	85.0032	0.37707799148936
0	816	85.00384	0.37723159148936
0	817	85.00448	0.37738519148936
0	818	85.0048	0.37753879148936
0	823	85.00544	0.37769239148936
0	824	85.00544	0.37784599148936
0	827	85.00576	0.38232837446808
0	828	85.00576	0.38681075744681
0	829	85.00576	0.3787522
0	830	85.00576	0.37102256326531
0	831	85.0064	0.37116989387755
0	832	85.00736	0.3713172244898
0	833	85.00736	0.37146455510204
0	834	85.00864	0.37161188571428
0	835	85.00896	0.37175921632653
0	840	90	0.37190654693877
0	841	90	0.37205387755102
0	846	90.00032	0.37220120816326
0	847	90.00032	0.37650063673469
0	848	90.00032	0.38080006530612
0	851	90.00064	0.38094739591837
0	852	90.0016	0.38109472653061
0	853	90.0016	0.38124205714286
0	854	90.00192	0.3813893877551
0	855	90.00224	0.38153671836735
0	856	90.00224	0.38168404897959
0	857	90.00288	0.38183137959184
0	858	90.0032	0.38197871020408
0	859	90.0032	0.38212604081633
0	860	90.00352	0.38227337142857
0	861	90.00352	0.38242070204081
0	862	90.00448	0.38256803265306
0	871	90.00544	0.3827153632653
0	874	90.00576	0.38701479183673
0	875	90.00576	0.379274496
0	876	90.0064	0.37941888
0	877	90.0064	0.379563264
0	878	90.0064	0.379707648
0	879	90.00672	0.379852032
0	880	90.00704	0.379996416
0	881	90.00768	0.3801408
0	886	95	0.380285184
0	887	95	0.380429568
0	888	95	0.380573952
0	894	95.00032	0.384787392
0	895	95.00032	0.389000832
0	896	95.00032	0.393214272
0	900	95.00096	0.393358656
0	901	95.00096	0.39350304
0	902	95.00096	0.393647424
0	903	95.0016	0.393791808
0	904	95.0016	0.393936192
0	905	95.00192	0.394080576
0	906	95.00256	0.39422496
0	907	95.0032	0.394369344
0	908	95.0032	0.394513728
0	909	95.00352	0.394658112
0	910	95.00384	0.394802496
0	911	95.00384	0.39494688
0	922	95.0048	0.395091264
0	924	95.00512	0.395235648
0	925	95.00512	0.399449088
0	926	95.00512	0.39161675294117
0	927	95.0064	0.39175830588235
0	929	95.00672	0.39588912941176
0	930	95.00672	0.38827587692307
0	931	95.00704	0.38841470769231
0	932	95.008	0.38855353846154
0	937	95.01248	0.38869236923077
0	940	95.0128	0.39274375384615
0	941	95.0128	0.38533349433962
0	946	100.00032	0.38546970566037
0	948	100.00064	0.3894446490566
0	949	100.00064	0.38223271111111
0	950	100.00096	0.3823664
0	951	100.0016	0.38250008888889
0	952	100.0016	0.38263377777778
0	953	100.0016	0.38276746666666
0	956	100.00192	0.38290115555555
0	957	100.00192	0.38303484444444
0	958	100.00192	0.38693617777778
0	959	100.00192	0.39083751111111
0	962	100.00224	0.3909712
0	963	100.00256	0.39110488888889
0	964	100.0048	0.39123857777778
0	965	100.0048	0.39137226666666
0	968	100.00512	0.39150595555555
0	969	100.00512	0.39163964444444
0	974	100.0064	0.39177333333333
0	977	100.00672	0.39190702222222
0	978	100.00672	0.39204071111111
0	979	100.00672	0.39594204444444
0	980	100.00672	0.38874309818182
0	981	100.00704	0.38887435636363
0	982	100.00832	0.38900561454545
0	983	100.00832	0.38913687272727
0	984	100.00864	0.38926813090909
0	985	100.00992	0.38939938909091
0	990	105.00032	0.38953064727272
0	991	105.00032	0.38966190545454
0	995	105.00064	0.38979316363636
0	996	105.00064	0.39362356363636
0	997	105.00064	0.39745396363636
0	1000	105.00096	0.39758522181818
0	1001	105.00128	0.39771648
0	1002	105.00128	0.39784773818182
0	1003	105.0016	0.39797899636363
0	1004	105.0016	0.39811025454545
0	1005	105.0016	0.39824151272727
0	1006	105.00224	0.39837277090909
0	1007	105.00256	0.39850402909091
0	1008	105.00288	0.39863528727272
0	1009	105.00384	0.39876654545454
0	1016	105.00544	0.39889780363636
0	1018	105.00576	0.40272820363636
0	1019	105.00576	0.39553662857143
0	1020	105.00608	0.39566554285714
0	1021	105.0064	0.39579445714285
0	1022	105.00672	0.39592337142857
0	1023	105.00704	0.39605228571428
0	1025	105.00736	0.39981428571428
0	1026	105.00736	0.3928
0	1027	105.00768	0.39292665263158
0	1028	105.00992	0.39305330526315
0	1031	105.01024	0.39317995789473
0	1032	105.01088	0.39330661052631
0	1035	110	0.39343326315789
0	1036	110	0.39355991578947
0	1041	110.00032	0.39725591578947
0	1042	110.00032	0.40095191578947
0	1045	110.00064	0.40107856842105
0	1046	110.00064	0.40120522105263
0	1047	110.00096	0.40133187368421
0	1048	110.00128	0.40145852631579
0	1049	110.00192	0.40158517894736
0	1050	110.00192	0.40171183157894
0	1051	110.00224	0.40183848421052
0	1052	110.00256	0.4019651368421
0	1053	110.00352	0.40209178947368
0	1054	110.00448	0.40221844210526
0	1063	110.00512	0.40234509473684
0	1064	110.00512	0.40247174736842
0	1067	110.00544	0.40616774736842
0	1068	110.00544	0.40986374736842
0	1071	110.00576	0.4099904
0	1072	110.00608	0.41011705263157
0	1074	110.0064	0.41024370526315
0	1075	110.0064	0.41393970526315
0	1076	110.0064	0.4068028137931
0	1077	110.00672	0.40692728275862
0	1078	110.00704	0.40705175172413
0	1083	110.00992	0.40717622068965
0	1086	110.0112	0.40730068965517
0	1089	110.01152	0.41093296551724
0	1090	110.01152	0.403968
0	1091	110.01216	0.40409035932203
0	1096	115.00064	0.40421271864406
0	1097	115.00064	0.4043350779661
0	1101	115.00096	0.4079057898305
0	1102	115.00096	0.41147650169491
0	1105	115.00128	0.41159886101694
0	1106	115.00128	0.41172122033898
0	1107	115.00128	0.41184357966101
0	1108	115.0016	0.41196593898305
0	1109	115.0016	0.41208829830508
0	1110	115.00192	0.41221065762711
0	1111	115.00224	0.41233301694915
0	1112	115.00224	0.41245537627118
0	1113	115.00256	0.41257773559322
0	1114	115.00288	0.41270009491525
0	1115	115.0032	0.41282245423728
0	1116	115.00384	0.41294481355932
0	1117	115.00384	0.41306717288135
0	1118	115.00416	0.41318953220339
0	1119	115.0048	0.41331189152542
0	1120	115.0048	0.41343425084745
0	1127	115.00576	0.41355661016949
0	1129	115.00608	0.41367896949152
0	1130	115.00608	0.41724968135593
0	1131	115.00608	0.41029552
0	1132	115.00704	0.41041584
0	1134	115.00736	0.41053616
0	1135	115.00736	0.41404736
0	1136	115.00736	0.40725969836065
0	1137	115.00768	0.40737804590163
0	1142	120.00064	0.40749639344262
0	1143	120.00064	0.4076147409836
0	1144	120.00064	0.40773308852459
0	1151	120.00096	0.40785143606557
0	1152	120.00096	0.40796978360655
0	1153	120.00096	0.40808813114754
0	1154	120.00096	0.4115417704918
0	1155	120.00096	0.41499540983606
0	1156	120.00096	0.41844904918032
0	1160	120.00128	0.41856739672131
0	1161	120.00128	0.41868574426229
0	1162	120.00192	0.41880409180327
0	1163	120.00192	0.41892243934426
0	1164	120.00192	0.41904078688524
0	1165	120.00256	0.41915913442622
0	1166	120.00256	0.41927748196721
0	1167	120.00448	0.41939582950819
0	1168	120.0048	0.41951417704918
0	1169	120.0048	0.41963252459016
0	1182	120.00544	0.41975087213114
0	1184	120.00576	0.4232045114754
0	1185	120.00576	0.41637863225806
0	1186	120.00608	0.41649507096774
0	1188	120.0064	0.41989300645161
0	1189	120.0064	0.41322803809523
0	1190	120.00704	0.41334262857142
0	1191	120.00832	0.41345721904761
0	1196	120.01088	0.4135718095238
0	1199	120.0112	0.4169158095238
0	1200	120.0112	0.41040149999999
0	1205	125.00032	0.41051429999999
0	1207	125.00064	0.41062709999999
0	1208	125.00064	0.41073989999999
0	1209	125.00064	0.41403164999999
0	1210	125.00064	0.40766193230769
0	1211	125.00096	0.40777299692307
0	1212	125.0016	0.40788406153846
0	1213	125.0016	0.40799512615384
0	1215	125.00192	0.40810619076923
0	1216	125.00192	0.40821725538461
0	1217	125.00192	0.40832831999999
0	1218	125.00192	0.40843938461538
0	1219	125.00192	0.41168049230769
0	1220	125.00192	0.4054429090909
0	1221	125.00256	0.40555229090909
0	1222	125.00384	0.40566167272727
0	1223	125.00416	0.40577105454545
0	1224	125.00448	0.40588043636363
0	1225	125.0048	0.40598981818181
0	1228	125.00576	0.40609919999999
0	1229	125.00576	0.40620858181818
0	1232	125.00736	0.40631796363636
0	1235	125.00768	0.40642734545454
0	1236	125.00768	0.40961934545454
0	1237	125.00768	0.40350562388059
0	1238	125.008	0.40361337313432
0	1239	125.008	0.40372112238805
0	1240	125.00928	0.40382887164179
0	1241	125.00928	0.40393662089552
0	1246	130	0.40404437014925
0	1247	130	0.40415211940298
0	1251	130.00032	0.40425986865671
0	1252	130.00032	0.40740422686567
0	1253	130.00032	0.41054858507462
0	1256	130.0016	0.41065633432835
0	1257	130.0016	0.41076408358208
0	1258	130.0016	0.41087183283582
0	1259	130.0016	0.41097958208955
0	1260	130.0016	0.41108733134328
0	1261	130.00192	0.41119508059701
0	1262	130.00192	0.41130282985074
0	1263	130.00256	0.41141057910447
0	1264	130.00352	0.4115183283582
0	1265	130.00384	0.41162607761193
0	1266	130.00416	0.41173382686567
0	1267	130.00416	0.4118415761194
0	1274	130.00512	0.41194932537313
0	1276	130.00544	0.41509368358208
0	1277	130.00544	0.40898936470588
0	1278	130.00576	0.40909552941176
0	1279	130.00576	0.40920169411764
0	1281	130.00608	0.4122998117647
0	1282	130.00608	0.40632445217391
0	1283	130.0064	0.40642907826086
0	1284	130.00832	0.40653370434782
0	1289	130.0112	0.40663833043478
0	1291	130.01152	0.40969154782608
0	1292	130.01152	0.40383881142857
0	1295	135	0.40394194285714
0	1296	135	0.40404507428571
0	1300	135.00032	0.40414820571428
0	1301	135.00032	0.40715780571428
0	1302	135.00032	0.41016740571428
0	1305	135.00096	0.41027053714285
0	1306	135.00096	0.41037366857142
0	1307	135.00128	0.41047679999999
0	1308	135.0016	0.41057993142857
0	1309	135.00224	0.41068306285714
0	1310	135.00224	0.41078619428571
0	1311	135.00288	0.41088932571428
0	1312	135.00448	0.41099245714285
0	1313	135.00448	0.41109558857142
0	1320	135.00512	0.41119871999999
0	1323	135.00544	0.41420831999999
0	1324	135.00544	0.40837439999999
0	1325	135.00576	0.40847607887323
0	1326	135.00576	0.40857775774647
0	1327	135.00608	0.40867943661971
0	1328	135.0064	0.40878111549295
0	1329	135.00736	0.40888279436619
0	1330	135.00736	0.40898447323943
0	1331	135.00768	0.40908615211267
0	1332	135.00832	0.40918783098591
0	1337	135.01056	0.40928950985915
0	1340	135.01088	0.41225672112675
0	1341	135.01088	0.40653093333333
0	1342	135.0128	0.40663119999999
0	1347	140	0.40673146666666
0	1350	140.00032	0.40683173333333
0	1351	140.00032	0.40975773333333
0	1352	140.00032	0.40414461369862
0	1353	140.00064	0.40424350684931
0	1354	140.00064	0.40434239999999
0	1355	140.00096	0.40444129315068
0	1356	140.00128	0.40454018630136
0	1357	140.00192	0.40463907945205
0	1358	140.00224	0.40473797260273
0	1359	140.00224	0.40483686575342
0	1360	140.00256	0.4049357589041
0	1361	140.00256	0.40503465205479
0	1362	140.00288	0.40513354520547
0	1363	140.00288	0.40523243835616
0	1364	140.00384	0.40533133150684
0	1365	140.00448	0.40543022465753
0	1366	140.00448	0.40552911780821
0	1371	140.00512	0.4056280109589
0	1374	140.00544	0.40851392876712
0	1375	140.00544	0.40299347027026
0	1376	140.00576	0.40309102702702
0	1377	140.00576	0.40318858378378
0	1378	140.00608	0.40328614054053
0	1379	140.00608	0.40338369729729
0	1380	140.00736	0.40348125405405
0	1381	140.0096	0.4035788108108
0	1382	140.0096	0.40367636756756
0	1387	145	0.40377392432432
0	1390	145.00032	0.40387148108107
0	1391	145.00032	0.40671839999999
0	1392	145.00032	0.40129548799999
0	1393	145.00096	0.40139174399999
0	1394	145.00128	0.40148799999999
0	1395	145.0016	0.40158425599999
0	1396	145.00192	0.40168051199999
0	1397	145.00192	0.40177676799999
0	1398	145.00192	0.40187302399999
0	1399	145.00256	0.40196927999999
0	1400	145.00256	0.40206553599999
0	1401	145.0032	0.40216179199999
0	1402	145.0032	0.40225804799999
0	1403	145.0032	0.40235430399999
0	1404	145.00384	0.40245055999999
0	1405	145.00448	0.40254681599999
0	1410	145.00512	0.40264307199999
0	1411	145.00512	0.40273932799999
0	1416	145.00544	0.40554828799999
0	1417	145.00544	0.40835724799999
0	1420	145.00608	0.40845350399999
0	1421	145.0064	0.40854975999999
0	1422	145.00672	0.40864601599999
0	1423	145.00736	0.40874227199999
0	1424	145.00896	0.40883852799999
0	1425	145.0096	0.40893478399999
0	1434	145.0128	0.40903103999999
0	1436	145.01312	0.41183999999999
0	1437	145.01312	0.40642105263157
0	1440	150	0.40651604210526
0	1441	150	0.40661103157894
0	1445	150.00032	0.40670602105262
0	1446	150.00032	0.40947802105262
0	1447	150.00032	0.41225002105262
0	1448	150.00032	0.40689612467532
0	1450	150.00096	0.40698988051947
0	1451	150.0016	0.40708363636363
0	1452	150.0016	0.40717739220779
0	1453	150.00192	0.40727114805194
0	1454	150.00192	0.4073649038961
0	1455	150.00224	0.40745865974025
0	1456	150.00256	0.40755241558441
0	1457	150.00288	0.40764617142856
0	1458	150.00416	0.40773992727272
0	1459	150.00448	0.40783368311688
0	1460	150.00448	0.40792743896103