version 3
run General-10-0-20231027-14:13:00-44380
attr configname General-10
attr datetime 20231027-14:13:00
attr datetimef 20231027-141300
attr experiment Multi_C1_N10
attr inifile omnetpp.ini
attr iterationvars ""
attr iterationvarsd ""
attr iterationvarsf ""
attr measurement ""
attr network SourceSink
attr processid 44380
attr repetition 0
attr replication #0
attr resultdir results
attr runnumber 0
attr seedset 0
config repeat 10
config seed-set 0
config **.macMinBE_value 3
config **.macMaxBE_value 4
config **.macMaxCSMABackoffs_value 2
config SourceSink.n 10
config **.cmdenv-log-level info
config network SourceSink
config repeat 10
config seed-set 0
config simtime-resolution ps
config **.macMinBE_value 3
config **.macMaxBE_value 4
config **.macMaxCSMABackoffs_value 2
config SourceSink.n 5
config **.cmdenv-log-level info

vector 0 SourceSink stat_avg_energy_cons:vector ETV
attr interpolationmode none
attr recordingmode vector
attr source sig_avg_energy_cons
attr title "Average energy consumption (per received package) (mJ)"
vector 1 SourceSink stat_energy_cons:vector ETV
attr interpolationmode none
attr recordingmode vector
attr source sig_energy_cons
attr title "Total energy consumption (mJ)"
vector 2 SourceSink stat_retries:vector ETV
attr interpolationmode none
attr recordingmode vector
attr source sig_retries
attr title "Total amount of retries"
vector 3 SourceSink stat_avg_retries:vector ETV
attr interpolationmode none
attr recordingmode vector
attr source sig_avg_retries
attr title "Average amount of retries (per received packet)"
vector 4 SourceSink stat_avg_latency:vector ETV
attr interpolationmode none
attr recordingmode vector
attr source sig_avg_latency
attr title "Average latency (per received package) (ms)"
vector 5 SourceSink stat_pkts_received:vector ETV
attr interpolationmode none
attr recordingmode vector
attr source sig_pkts_received
attr title "Total received packets (on the entire network)"
vector 6 SourceSink.sink[0] stat_pkts_received_net:vector ETV
attr interpolationmode none
attr recordingmode vector
attr source sig_pkts_received_net
attr title "Total amount of collisions received packets (on this sink) "
vector 7 SourceSink stat_avg_delivery_ratio:vector ETV
attr interpolationmode none
attr recordingmode vector
attr source sig_avg_delivery_ratio
attr title "Average delivery ratio (%)"
vector 8 SourceSink stat_pkts_timeout:vector ETV
attr interpolationmode none
attr recordingmode vector
attr source sig_pkts_timeout
attr title "Total packtes that timed-out (dropped)"
vector 9 SourceSink stat_pkts_dropped:vector ETV
attr interpolationmode none
attr recordingmode vector
attr source sig_pkts_dropped
attr title "Total dropped packets (dropped due to timeout or collision, on entire network)"
vector 10 SourceSink stat_latency:vector ETV
attr interpolationmode none
attr recordingmode vector
attr source sig_latency
attr title "Total latency (ms)"
vector 11 SourceSink stat_collided:vector ETV
attr interpolationmode none
attr recordingmode vector
attr source sig_collided
attr title "Total collisions (on the entire network)"
vector 12 SourceSink.sink[1] stat_collided_net:vector ETV
attr interpolationmode none
attr recordingmode vector
attr source sig_collided_net
attr title "Total amount of collision (on this channel)"
vector 13 SourceSink.sink[0] stat_collided_net:vector ETV
attr interpolationmode none
attr recordingmode vector
attr source sig_collided_net
attr title "Total amount of collision (on this channel)"
vector 14 SourceSink.sink[1] stat_pkts_received_net:vector ETV
attr interpolationmode none
attr recordingmode vector
attr source sig_pkts_received_net
attr title "Total amount of collisions received packets (on this sink) "
0	1	0	inf
0	3	0.00032	inf
0	4	0.00032	inf
0	5	0.00032	inf
0	6	0.00032	0.2323296
0	7	0.00064	0.2395488
0	8	0.00096	0.246768
0	9	0.00096	0.2539872
0	10	0.00096	0.2612064
0	11	0.00128	0.2684256
0	12	0.0016	0.2756448
0	13	0.0016	0.282864
0	14	0.00192	0.2900832
0	15	0.00192	0.2973024
0	16	0.00192	0.3045216
0	17	0.00224	0.3117408
0	18	0.00224	0.31896
0	19	0.00224	0.3261792
0	20	0.00224	0.3333984
0	21	0.00224	0.3406176
0	22	0.00256	0.3478368
0	23	0.00256	0.355056
0	24	0.00256	0.3622752
0	25	0.00256	0.3694944
0	26	0.00256	0.3767136
0	27	0.00288	0.3839328
0	28	0.00288	0.391152
0	29	0.00288	0.3983712
0	30	0.00288	0.4055904
0	31	0.0032	0.4128096
0	32	0.00352	0.4200288
0	33	0.00352	0.427248
0	34	0.00384	0.4344672
0	35	0.00416	0.4416864
0	36	0.00448	0.4489056
0	37	0.00448	0.4561248
0	40	0.0048	0.463344
0	41	0.0048	0.4705632
0	42	0.0048	0.4777824
0	46	0.00512	0.4850016
0	47	0.00512	0.6956736
0	48	0.00512	0.9063456
0	49	0.00512	1.1170176
0	53	0.00544	1.1242368
0	54	0.00576	1.131456
0	55	0.0064	1.1386752
0	56	0.0064	1.1458944
0	57	0.0064	1.1531136
0	58	0.00672	1.1603328
0	59	0.00672	1.167552
0	60	0.00672	1.1747712
0	61	0.00672	1.1819904
0	62	0.00736	1.1892096
0	63	0.00768	1.1964288
0	64	0.00832	1.203648
0	65	0.00928	1.2108672
0	72	0.01024	1.2180864
0	74	0.01056	1.4287584
0	75	0.01056	0.7143792
0	76	0.01088	0.7179888
0	77	0.0112	0.7215984
0	80	5.00032	0.725208
0	82	5.00064	0.7288176
0	83	5.00064	0.8341536
0	84	5.00064	0.5561024
0	85	5.00096	0.5585088
0	86	5.00096	0.5609152
0	87	5.00096	0.5633216
0	88	5.00128	0.565728
0	89	5.00128	0.5681344
0	90	5.00128	0.5705408
0	91	5.00128	0.5729472
0	92	5.00128	0.5753536
0	93	5.00128	0.57776
0	94	5.00128	0.5801664
0	95	5.0016	0.5825728
0	96	5.0016	0.5849792
0	97	5.00192	0.5873856
0	98	5.00192	0.589792
0	99	5.00192	0.5921984
0	100	5.00224	0.5946048
0	101	5.00224	0.5970112
0	102	5.00224	0.5994176
0	103	5.00256	0.601824
0	104	5.00256	0.6042304
0	105	5.00256	0.6066368
0	106	5.00288	0.6090432
0	107	5.00288	0.6114496
0	108	5.00288	0.613856
0	109	5.00288	0.6162624
0	110	5.00288	0.6186688
0	111	5.0032	0.6210752
0	112	5.00384	0.6234816
0	113	5.00384	0.625888
0	114	5.00416	0.6282944
0	115	5.00448	0.6307008
0	116	5.00448	0.6331072
0	117	5.0048	0.6355136
0	120	5.00544	0.63792
0	121	5.00544	0.6403264
0	122	5.00544	0.6427328
0	126	5.00576	0.6451392
0	127	5.00576	0.7153632
0	128	5.00576	0.7855872
0	129	5.00576	0.8558112
0	133	5.00608	0.8582176
0	134	5.0064	0.860624
0	135	5.0064	0.8630304
0	136	5.0064	0.8654368
0	137	5.0064	0.8678432
0	138	5.00704	0.8702496
0	139	5.00736	0.872656
0	140	5.00768	0.8750624
0	141	5.00768	0.8774688
0	142	5.008	0.8798752
0	143	5.00896	0.8822816
0	144	5.00928	0.884688
0	145	5.0096	0.8870944
0	152	5.01024	0.8895008
0	154	5.01056	0.9597248
0	155	5.01056	0.7197936
0	158	10	0.7215984
0	159	10	0.7234032
0	162	10.00032	0.725208
0	163	10.00032	0.7270128
0	164	10.00032	0.7796808
0	165	10.00032	0.8323488
0	168	10.00064	0.8341536
0	169	10.00064	0.8359584
0	170	10.00064	0.8377632
0	171	10.00096	0.839568
0	172	10.00096	0.8413728
0	173	10.00096	0.8431776
0	174	10.00096	0.8449824
0	175	10.00096	0.8467872
0	176	10.00128	0.848592
0	177	10.0016	0.8503968
0	178	10.00192	0.8522016
0	179	10.00192	0.8540064
0	180	10.00192	0.8558112
0	181	10.00192	0.857616
0	182	10.00224	0.8594208
0	183	10.00256	0.8612256
0	184	10.00256	0.8630304
0	185	10.00256	0.8648352
0	186	10.0032	0.86664
0	187	10.0032	0.8684448
0	188	10.00352	0.8702496
0	189	10.00352	0.8720544
0	190	10.00384	0.8738592
0	191	10.00384	0.875664
0	192	10.00384	0.8774688
0	193	10.00416	0.8792736
0	198	10.0048	0.8810784
0	200	10.00512	0.8828832
0	201	10.00512	0.9355512
0	202	10.00512	0.74844096
0	203	10.00544	0.7498848
0	204	10.00576	0.75132864
0	205	10.00576	0.75277248
0	206	10.00608	0.75421632
0	207	10.0064	0.75566016
0	208	10.0064	0.757104
0	209	10.0064	0.75854784
0	210	10.0064	0.75999168
0	211	10.00672	0.76143552
0	212	10.00736	0.76287936
0	213	10.008	0.7643232
0	214	10.00864	0.76576704
0	215	10.00864	0.76721088
0	216	10.00864	0.76865472
0	217	10.00864	0.77009856
0	220	10.00992	0.7715424
0	222	10.01024	0.77298624
0	223	10.01024	0.81512064
0	224	10.01024	0.6792672
0	225	10.01056	0.6804704
0	226	10.01088	0.6816736
0	227	10.01312	0.6828768
0	230	15	0.68408
0	231	15	0.6852832
0	234	15.00032	0.6864864
0	235	15.00032	0.7215984
0	236	15.00032	0.7567104
0	239	15.00064	0.7579136
0	240	15.00096	0.7591168
0	241	15.00096	0.76032
0	242	15.00128	0.7615232
0	243	15.0016	0.7627264
0	244	15.0016	0.7639296
0	245	15.00192	0.7651328
0	246	15.00192	0.766336
0	247	15.00192	0.7675392
0	248	15.00192	0.7687424
0	249	15.00224	0.7699456
0	250	15.00224	0.7711488
0	251	15.00224	0.772352
0	252	15.00256	0.7735552
0	253	15.00256	0.7747584
0	254	15.00256	0.7759616
0	255	15.00256	0.7771648
0	256	15.00256	0.778368
0	257	15.00288	0.7795712
0	258	15.0032	0.7807744
0	259	15.00352	0.7819776
0	260	15.00384	0.7831808
0	261	15.00384	0.784384
0	262	15.00416	0.7855872
0	263	15.00416	0.7867904
0	264	15.00448	0.7879936
0	269	15.0048	0.7891968
0	271	15.00512	0.7904
0	272	15.00512	0.7916032
0	273	15.00512	0.7928064
0	274	15.00512	0.7940096
0	275	15.00512	0.8291216
0	276	15.00512	0.71067565714286
0	277	15.00544	0.71170697142857
0	278	15.00544	0.71273828571428
0	279	15.00544	0.7137696
0	280	15.00576	0.71480091428571
0	281	15.00576	0.71583222857143
0	282	15.00608	0.71686354285714
0	283	15.00608	0.71789485714286
0	284	15.0064	0.71892617142857
0	285	15.00672	0.71995748571429
0	286	15.00672	0.7209888
0	287	15.00704	0.72202011428571
0	288	15.00704	0.72305142857143
0	289	15.00768	0.72408274285714
0	290	15.008	0.72511405714286
0	291	15.008	0.72614537142857
0	292	15.00896	0.72717668571429
0	295	15.01088	0.728208
0	297	15.0112	0.72923931428571
0	298	15.0112	0.75933531428571
0	299	15.0112	0.6644184
0	300	15.01184	0.6653208
0	303	20.00032	0.6662232
0	304	20.00032	0.6671256
0	305	20.00032	0.668028
0	306	20.00032	0.6689304
0	311	20.00064	0.6698328
0	312	20.00064	0.6707352
0	313	20.00064	0.6716376
0	314	20.00064	0.67254
0	315	20.00064	0.698874
0	316	20.00064	0.725208
0	317	20.00064	0.751542
0	318	20.00064	0.777876
0	323	20.00096	0.7787784
0	324	20.00096	0.7796808
0	325	20.00128	0.7805832
0	326	20.0016	0.7814856
0	327	20.0016	0.782388
0	328	20.0016	0.7832904
0	329	20.0016	0.7841928
0	330	20.0016	0.7850952
0	331	20.00224	0.7859976
0	332	20.00256	0.7869
0	333	20.00256	0.7878024
0	334	20.00256	0.7887048
0	335	20.00288	0.7896072
0	336	20.00352	0.7905096
0	337	20.00352	0.791412
0	338	20.00384	0.7923144
0	339	20.00384	0.7932168
0	340	20.00416	0.7941192
0	341	20.0048	0.7950216
0	342	20.0048	0.795924
0	343	20.0048	0.7968264
0	352	20.00512	0.7977288
0	353	20.00512	0.7986312
0	356	20.00544	0.7995336
0	357	20.00544	0.800436
0	358	20.00544	0.8013384
0	359	20.00544	0.8276724
0	360	20.00544	0.8540064
0	363	20.00576	0.8549088
0	364	20.00576	0.8558112
0	365	20.00576	0.8567136
0	366	20.00608	0.857616
0	367	20.00608	0.8585184
0	368	20.0064	0.8594208
0	369	20.0064	0.8603232
0	370	20.00736	0.8612256
0	371	20.00768	0.862128
0	372	20.00768	0.8630304
0	373	20.00896	0.8639328
0	374	20.00928	0.8648352
0	375	20.0096	0.8657376
0	380	20.00992	0.86664
0	382	20.01024	0.892974
0	383	20.01024	0.79375466666667
0	386	25	0.7945568
0	388	25.00032	0.8179648
0	389	25.00032	0.73616832
0	390	25.00064	0.73689024
0	391	25.00096	0.73761216
0	392	25.00096	0.73833408
0	393	25.00128	0.739056
0	394	25.00128	0.73977792
0	395	25.00128	0.74049984
0	396	25.00128	0.74122176
0	397	25.00128	0.74194368
0	398	25.0016	0.7426656
0	399	25.0016	0.74338752
0	400	25.00192	0.74410944
0	401	25.00224	0.74483136
0	402	25.00224	0.74555328
0	403	25.00224	0.7462752
0	404	25.00224	0.74699712
0	405	25.00224	0.74771904
0	406	25.00224	0.74844096
0	407	25.00256	0.74916288
0	408	25.00256	0.7498848
0	409	25.00256	0.75060672
0	410	25.00256	0.75132864
0	411	25.00352	0.75205056
0	412	25.00384	0.75277248
0	413	25.00448	0.7534944
0	414	25.00448	0.75421632
0	417	25.0048	0.75493824
0	418	25.0048	0.75566016
0	421	25.00512	0.75638208
0	422	25.00512	0.757104
0	423	25.00512	0.75782592
0	424	25.00512	0.77889312
0	425	25.00512	0.79996032
0	428	25.00544	0.80068224
0	429	25.00544	0.80140416
0	430	25.00576	0.80212608
0	431	25.00576	0.802848
0	432	25.00576	0.80356992
0	433	25.0064	0.80429184
0	434	25.0064	0.80501376
0	435	25.00672	0.80573568
0	436	25.00704	0.8064576
0	437	25.00704	0.80717952
0	438	25.00768	0.80790144
0	439	25.00768	0.80862336
0	440	25.00768	0.80934528
0	441	25.008	0.8100672
0	442	25.00832	0.81078912
0	443	25.00832	0.81151104
0	444	25.00832	0.81223296
0	445	25.00864	0.81295488
0	450	25.00992	0.8136768
0	452	25.01024	0.81439872
0	453	25.01024	0.83546592
0	454	25.01024	0.75951447272727
0	455	25.0112	0.76017076363637
0	456	25.01184	0.76082705454546
0	459	30.00032	0.76148334545455
0	460	30.00032	0.76213963636364
0	461	30.00032	0.76279592727273
0	465	30.00064	0.76345221818182
0	466	30.00064	0.78260421818182
0	467	30.00064	0.80175621818182
0	468	30.00064	0.82090821818182
0	472	30.00096	0.82156450909091
0	473	30.00096	0.8222208
0	474	30.00096	0.82287709090909
0	475	30.00096	0.82353338181818
0	476	30.00128	0.82418967272728
0	477	30.0016	0.82484596363637
0	478	30.0016	0.82550225454546
0	479	30.00192	0.82615854545455
0	480	30.00192	0.82681483636364
0	481	30.00192	0.82747112727273
0	482	30.00192	0.82812741818182
0	483	30.00224	0.82878370909091
0	484	30.00224	0.82944
0	485	30.00224	0.83009629090909
0	486	30.00224	0.83075258181818
0	487	30.00224	0.83140887272728
0	488	30.00256	0.83206516363637
0	489	30.00256	0.83272145454546
0	490	30.00256	0.83337774545455
0	491	30.0032	0.83403403636364
0	492	30.0032	0.83469032727273
0	493	30.00384	0.83534661818182
0	494	30.00416	0.83600290909091
0	495	30.00448	0.8366592
0	496	30.00448	0.83731549090909
0	497	30.00448	0.83797178181818
0	504	30.00512	0.83862807272728
0	505	30.00512	0.83928436363637
0	508	30.00544	0.83994065454546
0	509	30.00544	0.84059694545455
0	510	30.00544	0.85974894545455
0	511	30.00544	0.87890094545455
0	514	30.00608	0.87955723636364
0	515	30.0064	0.88021352727273
0	516	30.00672	0.88086981818182
0	517	30.00672	0.88152610909091
0	518	30.00672	0.8821824
0	519	30.00704	0.88283869090909
0	520	30.00736	0.88349498181818
0	521	30.00736	0.88415127272728
0	522	30.00768	0.88480756363637
0	523	30.00768	0.88546385454546
0	524	30.00768	0.88612014545455
0	525	30.008	0.88677643636364
0	526	30.008	0.88743272727273
0	527	30.00864	0.88808901818182
0	528	30.00896	0.88874530909091
0	533	30.01216	0.8894016
0	535	30.01248	0.9085536
0	536	30.01248	0.8328408
0	539	35	0.8334424
0	541	35.00032	0.834044
0	542	35.00032	0.8346456
0	543	35.00032	0.8522016
0	544	35.00032	0.78664763076923
0	545	35.00064	0.78720295384616
0	546	35.00096	0.78775827692308
0	547	35.00096	0.7883136
0	548	35.00096	0.78886892307693
0	549	35.00128	0.78942424615385
0	550	35.00128	0.78997956923077
0	551	35.00128	0.7905348923077
0	552	35.00128	0.79109021538462
0	553	35.0016	0.79164553846154
0	554	35.0016	0.79220086153846
0	555	35.0016	0.79275618461539
0	556	35.00192	0.79331150769231
0	557	35.00192	0.79386683076923
0	558	35.00224	0.79442215384616
0	559	35.00224	0.79497747692308
0	560	35.00224	0.7955328
0	561	35.00224	0.79608812307693
0	562	35.00256	0.79664344615385
0	563	35.00256	0.79719876923077
0	564	35.00256	0.7977540923077
0	565	35.00288	0.79830941538462
0	566	35.0032	0.79886473846154
0	567	35.0032	0.79942006153846
0	568	35.0032	0.79997538461539
0	569	35.00352	0.80053070769231
0	570	35.00352	0.80108603076923
0	571	35.00352	0.80164135384616
0	572	35.00384	0.80219667692308
0	573	35.00384	0.802752
0	574	35.00448	0.80330732307693
0	575	35.00448	0.80386264615385
0	576	35.00448	0.80441796923077
0	577	35.00448	0.8049732923077
0	580	35.00512	0.80552861538462
0	581	35.00512	0.80608393846154
0	582	35.00512	0.80663926153847
0	586	35.00544	0.80719458461539
0	587	35.00544	0.80774990769231
0	588	35.00544	0.80830523076923
0	589	35.00544	0.82451076923077
0	590	35.00544	0.84071630769231
0	591	35.00544	0.85692184615385
0	595	35.00576	0.85747716923077
0	596	35.00608	0.8580324923077
0	597	35.00672	0.85858781538462
0	598	35.00672	0.85914313846154
0	599	35.00672	0.85969846153847
0	600	35.00736	0.86025378461539
0	601	35.008	0.86080910769231
0	602	35.00896	0.86136443076923
0	603	35.0096	0.86191975384616
0	610	35.00992	0.86247507692308
0	612	35.01024	0.87868061538462
0	613	35.01024	0.81591771428572
0	614	35.01152	0.81643337142857
0	617	40	0.81694902857143
0	618	40	0.81746468571429
0	621	40.00032	0.81798034285715
0	622	40.00032	0.818496
0	623	40.00032	0.833544
0	624	40.00032	0.848592
0	627	40.00064	0.84910765714286
0	628	40.00064	0.84962331428572
0	629	40.00064	0.85013897142858
0	630	40.00096	0.85065462857143
0	631	40.00096	0.85117028571429
0	632	40.00096	0.85168594285715
0	633	40.00096	0.8522016
0	634	40.00128	0.85271725714286
0	635	40.0016	0.85323291428572
0	636	40.00192	0.85374857142858
0	637	40.00192	0.85426422857143
0	638	40.00192	0.85477988571429
0	639	40.00192	0.85529554285715
0	640	40.00224	0.8558112
0	641	40.00224	0.85632685714286
0	642	40.00224	0.85684251428572
0	643	40.00256	0.85735817142858
0	644	40.00256	0.85787382857143
0	645	40.00256	0.85838948571429
0	646	40.00288	0.85890514285715
0	647	40.00352	0.8594208
0	648	40.00352	0.85993645714286
0	649	40.00352	0.86045211428572
0	650	40.00352	0.86096777142858
0	651	40.00384	0.86148342857143
0	652	40.00416	0.86199908571429
0	653	40.00416	0.86251474285715
0	654	40.00448	0.8630304
0	655	40.00448	0.86354605714286
0	660	40.0048	0.86406171428572
0	662	40.00512	0.87910971428572
0	663	40.00512	0.8205024
0	664	40.00544	0.82098368
0	665	40.00544	0.82146496
0	666	40.00544	0.82194624
0	667	40.00544	0.82242752
0	668	40.00544	0.8229088
0	669	40.00608	0.82339008
0	670	40.00608	0.82387136
0	671	40.00608	0.82435264
0	672	40.00672	0.82483392
0	673	40.00768	0.8253152
0	674	40.00768	0.82579648
0	675	40.00768	0.82627776
0	676	40.008	0.82675904
0	677	40.00832	0.82724032
0	678	40.00832	0.8277216
0	679	40.00896	0.82820288
0	680	40.00896	0.82868416
0	683	40.0112	0.82916544
0	685	40.01152	0.84321024
0	686	40.01152	0.7905096
0	689	45	0.7909608
0	690	45	0.791412
0	693	45.00032	0.7918632
0	694	45.00032	0.8050302
0	695	45.00032	0.8181972
0	698	45.00064	0.8186484
0	699	45.00096	0.8190996
0	700	45.00096	0.8195508
0	701	45.00128	0.820002
0	702	45.0016	0.8204532
0	703	45.0016	0.8209044
0	704	45.0016	0.8213556
0	705	45.0016	0.8218068
0	706	45.0016	0.822258
0	707	45.00192	0.8227092
0	708	45.00192	0.8231604
0	709	45.00192	0.8236116
0	710	45.00192	0.8240628
0	711	45.00224	0.824514
0	712	45.00224	0.8249652
0	713	45.00256	0.8254164
0	714	45.00256	0.8258676
0	715	45.00288	0.8263188
0	716	45.0032	0.82677
0	717	45.0032	0.8272212
0	718	45.00352	0.8276724
0	719	45.00416	0.8281236
0	720	45.00416	0.8285748
0	721	45.00416	0.829026
0	722	45.00416	0.8294772
0	723	45.00448	0.8299284
0	724	45.00448	0.8303796
0	725	45.00448	0.8308308
0	730	45.0048	0.831282
0	731	45.0048	0.8317332
0	734	45.00512	0.8321844
0	735	45.00512	0.8326356
0	736	45.00512	0.8330868
0	737	45.00512	0.8462538
0	738	45.00512	0.8594208
0	741	45.00544	0.859872
0	742	45.00544	0.8603232
0	743	45.00576	0.8607744
0	744	45.00576	0.8612256
0	745	45.00608	0.8616768
0	746	45.00608	0.862128
0	747	45.00608	0.8625792
0	748	45.00672	0.8630304
0	749	45.00704	0.8634816
0	750	45.00704	0.8639328
0	751	45.00832	0.864384
0	752	45.00928	0.8648352
0	757	45.00992	0.8652864
0	758	45.00992	0.8657376
0	761	45.01024	0.8661888
0	762	45.01024	0.8793558
0	763	45.01024	0.8925228
0	766	45.01088	0.892974
0	767	45.01184	0.8934252
0	772	50	0.8938764
0	773	50	0.8943276
0	774	50	0.8947788
0	775	50	0.89523
0	780	50.00032	0.8956812
0	781	50.00032	0.8961324
0	782	50.00032	0.9092994
0	783	50.00032	0.9224664
0	784	50.00032	0.9356334
0	785	50.00032	0.9488004
0	790	50.00064	0.9492516
0	791	50.00064	0.9497028
0	792	50.00064	0.950154
0	793	50.00096	0.9506052
0	794	50.00096	0.9510564
0	795	50.00128	0.95150760000001
0	796	50.00128	0.9519588
0	797	50.00128	0.95241
0	798	50.00128	0.9528612
0	799	50.0016	0.95331240000001
0	800	50.0016	0.95376360000001
0	801	50.00192	0.95421480000001
0	802	50.00192	0.95466600000001
0	803	50.00192	0.95511720000001
0	804	50.00224	0.95556840000001
0	805	50.00224	0.95601960000001
0	806	50.00288	0.95647080000001
0	807	50.00288	0.95692200000001
0	808	50.00384	0.95737320000001
0	809	50.00384	0.95782440000001
0	810	50.00384	0.95827560000001
0	811	50.00416	0.95872680000001
0	812	50.00448	0.95917800000001
0	821	50.0048	0.95962920000001
0	822	50.0048	0.96008040000001
0	823	50.0048	0.96053160000001
0	827	50.00512	0.96098280000001
0	828	50.00512	0.97414980000001
0	829	50.00512	0.98731680000001
0	830	50.00512	1.0004838
0	834	50.00544	1.000935
0	835	50.00608	1.0013862
0	836	50.00608	1.0018374
0	837	50.00608	1.0022886
0	838	50.0064	1.0027398
0	839	50.00672	1.003191
0	840	50.00672	1.0036422
0	841	50.00672	1.0040934
0	842	50.00704	1.0045446
0	843	50.008	1.0049958
0	844	50.00832	1.005447
0	845	50.00864	1.0058982
0	852	50.01088	1.0063494
0	854	50.0112	1.0068006
0	855	50.0112	1.0199676
0	856	50.0112	0.95996950588236
0	859	55	0.96039416470589
0	860	55	0.96081882352942
0	863	55.00032	0.96124348235294
0	864	55.00032	0.96166814117647
0	865	55.00032	0.97406061176471
0	866	55.00032	0.98645308235294
0	869	55.00064	0.98687774117647
0	870	55.00064	0.9873024
0	871	55.00064	0.98772705882353
0	872	55.00064	0.98815171764706
0	873	55.00064	0.98857637647059
0	874	55.00096	0.98900103529412
0	875	55.00096	0.98942569411765
0	876	55.00096	0.98985035294118
0	877	55.00096	0.99027501176471
0	878	55.00096	0.99069967058824
0	879	55.00096	0.99112432941177
0	880	55.0016	0.9915489882353
0	881	55.0016	0.99197364705883
0	882	55.0016	0.99239830588235
0	883	55.00192	0.99282296470588
0	884	55.00192	0.99324762352941
0	885	55.00192	0.99367228235294
0	886	55.00224	0.99409694117647
0	887	55.00224	0.9945216
0	888	55.00256	0.99494625882353
0	889	55.00256	0.99537091764706
0	890	55.00256	0.99579557647059
0	891	55.00288	0.99622023529412
0	892	55.00352	0.99664489411765
0	893	55.00384	0.99706955294118
0	894	55.00384	0.99749421176471
0	895	55.00416	0.99791887058824
0	896	55.00416	0.99834352941177
0	897	55.00416	0.99876818823529
0	898	55.00416	0.99919284705882
0	899	55.00448	0.99961750588235
0	904	55.0048	1.0000421647059
0	906	55.00512	1.0004668235294
0	907	55.00512	1.0008914823529
0	908	55.00512	1.0013161411765
0	909	55.00512	1.0017408
0	910	55.00512	1.0141332705882
0	911	55.00512	0.95779253333333
0	912	55.00576	0.9581936
0	913	55.00576	0.95859466666667
0	914	55.00608	0.95899573333333
0	915	55.0064	0.9593968
0	916	55.00672	0.95979786666667
0	917	55.008	0.96019893333333
0	918	55.008	0.9606
0	919	55.00832	0.96100106666667
0	920	55.00864	0.96140213333333
0	921	55.00928	0.9618032
0	922	55.00928	0.96220426666667
0	925	55.0096	0.96260533333333
0	927	55.00992	0.97430933333333
0	928	55.00992	0.92302989473684
0	929	55.01152	0.92340985263158
0	932	60	0.92378981052631
0	933	60	0.92416976842105
0	934	60	0.92454972631579
0	935	60	0.92492968421052
0	936	60	0.92530964210526
0	942	60.00032	0.9256896
0	943	60.00032	0.9367776
0	944	60.00032	0.9478656
0	945	60.00032	0.9589536
0	946	60.00032	0.9700416
0	947	60.00032	0.9811296
0	953	60.00064	0.98150955789473
0	954	60.00064	0.98188951578947
0	955	60.00096	0.98226947368421
0	956	60.00128	0.98264943157894
0	957	60.00128	0.98302938947368
0	958	60.0016	0.98340934736842
0	959	60.0016	0.98378930526316
0	960	60.0016	0.98416926315789
0	961	60.0016	0.98454922105263
0	962	60.00192	0.98492917894737
0	963	60.00192	0.9853091368421
0	964	60.00224	0.98568909473684
0	965	60.00224	0.98606905263158
0	966	60.00224	0.98644901052631
0	967	60.00224	0.98682896842105
0	968	60.00256	0.98720892631579
0	969	60.00256	0.98758888421052
0	970	60.00288	0.98796884210526
0	971	60.00352	0.9883488
0	972	60.00352	0.98872875789473
0	973	60.00384	0.98910871578947
0	974	60.00416	0.98948867368421
0	975	60.00448	0.98986863157894
0	986	60.0048	0.99024858947368
0	988	60.00512	1.0013365894737
0	989	60.00512	0.95126976
0	990	60.00544	0.95163072
0	991	60.00544	0.95199168
0	992	60.00544	0.95235264
0	993	60.00576	0.9527136
0	994	60.00608	0.95307456
0	995	60.0064	0.95343552
0	996	60.00672	0.95379648
0	997	60.00704	0.95415744
0	998	60.00704	0.9545184
0	999	60.00768	0.95487936
0	1000	60.00768	0.95524032
0	1001	60.00832	0.95560128
0	1002	60.00832	0.95596223999999
0	1003	60.00864	0.95632319999999
0	1006	60.0096	0.95668415999999
0	1007	60.0096	0.95704511999999
0	1010	60.00992	0.96757871999999
0	1011	60.00992	0.97811231999999
0	1014	60.01088	0.97847327999999
0	1019	65	0.97883423999999
0	1020	65	0.97919519999999
0	1021	65	0.97955615999999
0	1025	65.00032	0.97991711999999
0	1026	65.00032	0.99045071999999
0	1027	65.00032	1.00098432
0	1028	65.00032	1.01151792
0	1032	65.00064	1.01187888
0	1033	65.00064	1.01223984
0	1034	65.00096	1.0126008
0	1035	65.00128	1.01296176
0	1036	65.00128	1.01332272
0	1037	65.00128	1.01368368
0	1038	65.0016	1.01404464
0	1039	65.0016	1.0144056
0	1040	65.0016	1.01476656
0	1041	65.00192	1.01512752
0	1042	65.00224	1.01548848
0	1043	65.00224	1.01584944
0	1044	65.00224	1.0162104
0	1045	65.00224	1.01657136
0	1046	65.00224	1.01693232
0	1047	65.00224	1.01729328
0	1048	65.00224	1.01765424
0	1049	65.00256	1.0180152
0	1050	65.00288	1.01837616
0	1051	65.00288	1.01873712
0	1052	65.0032	1.01909808
0	1053	65.0032	1.01945904
0	1054	65.00352	1.01982
0	1055	65.00384	1.02018096
0	1056	65.00416	1.02054192
0	1057	65.00416	1.02090288
0	1058	65.00448	1.02126384
0	1065	65.00512	1.0216248
0	1066	65.00512	1.02198576
0	1067	65.00512	1.02234672
0	1068	65.00512	1.02270768
0	1073	65.00544	1.02306864
0	1074	65.00544	1.03360224
0	1075	65.00544	1.04413584
0	1076	65.00544	1.05466944
0	1077	65.00544	1.06520304
0	1082	65.00576	1.065564
0	1083	65.00576	1.06592496
0	1084	65.00608	1.06628592
0	1085	65.0064	1.06664688
0	1086	65.00672	1.06700784
0	1087	65.00704	1.0673688
0	1088	65.00768	1.06772976
0	1089	65.00832	1.06809072
0	1090	65.0096	1.06845168
0	1099	65.01056	1.06881264
0	1100	65.01056	1.0691736
0	1103	65.01088	1.0797072
0	1104	65.01088	1.0902408
0	1111	70	1.09060176
0	1112	70	1.09096272
0	1113	70	1.09132368
0	1114	70	1.09168464
0	1119	70.00032	1.0920456
0	1120	70.00032	1.09240656
0	1121	70.00032	1.10294016
0	1122	70.00032	1.11347376
0	1123	70.00032	1.12400736
0	1124	70.00032	1.13454096
0	1129	70.00064	1.13490192
0	1130	70.00096	1.13526288
0	1131	70.00096	1.13562384
0	1132	70.0016	1.1359848
0	1133	70.0016	1.13634576
0	1134	70.00192	1.13670672
0	1135	70.00192	1.13706768
0	1136	70.00192	1.13742864
0	1137	70.00192	1.1377896
0	1138	70.00192	1.13815056
0	1139	70.00224	1.13851152
0	1140	70.00224	1.13887248
0	1141	70.00224	1.13923344
0	1142	70.00224	1.1395944
0	1143	70.00224	1.13995536
0	1144	70.00256	1.14031632
0	1145	70.00256	1.14067728
0	1146	70.00352	1.14103824
0	1147	70.00352	1.1413992
0	1148	70.00352	1.14176016
0	1149	70.00352	1.14212112
0	1150	70.00352	1.14248208
0	1151	70.00384	1.14284304
0	1152	70.00384	1.143204
0	1153	70.00416	1.14356496
0	1154	70.00416	1.14392592
0	1155	70.00416	1.14428688
0	1156	70.00448	1.14464784
0	1157	70.00448	1.1450088
0	1166	70.0048	1.14536976
0	1168	70.00512	1.15590336
0	1169	70.00512	1.1008603428571
0	1170	70.00544	1.1012041142857
0	1171	70.00576	1.1015478857143
0	1172	70.00608	1.1018916571428
0	1173	70.00608	1.1022354285714
0	1174	70.00608	1.1025792
0	1175	70.00736	1.1029229714286
0	1176	70.00736	1.1032667428571
0	1177	70.00768	1.1036105142857
0	1178	70.008	1.1039542857143
0	1179	70.008	1.1042980571428
0	1182	70.0096	1.1046418285714
0	1184	70.00992	1.1146738285714
0	1185	70.00992	1.0640068363636
0	1186	70.01088	1.0643349818182
0	1187	70.01184	1.0646631272727
0	1190	75	1.0649912727273
0	1192	75.00032	1.0653194181818
0	1193	75.00032	1.0656475636364
0	1194	75.00032	1.0659757090909
0	1195	75.00032	1.0755517090909
0	1196	75.00032	1.0287885913043
0	1197	75.00064	1.0291024695652
0	1198	75.00064	1.0294163478261
0	1199	75.00064	1.0297302260869
0	1200	75.00064	1.0300441043478
0	1201	75.00096	1.0303579826087
0	1202	75.00096	1.0306718608696
0	1203	75.00096	1.0309857391304
0	1204	75.00128	1.0312996173913
0	1205	75.0016	1.0316134956522
0	1206	75.0016	1.031927373913
0	1207	75.00192	1.0322412521739
0	1208	75.00192	1.0325551304348
0	1209	75.00192	1.0328690086956
0	1210	75.00224	1.0331828869565
0	1211	75.00224	1.0334967652174
0	1212	75.00224	1.0338106434782
0	1213	75.00256	1.0341245217391
0	1214	75.00256	1.0344384
0	1215	75.00288	1.0347522782609
0	1216	75.0032	1.0350661565217
0	1217	75.0032	1.0353800347826
0	1218	75.0032	1.0356939130435
0	1219	75.00352	1.0360077913043
0	1220	75.00352	1.0363216695652
0	1221	75.00384	1.0366355478261
0	1222	75.00384	1.0369494260869
0	1223	75.00448	1.0372633043478
0	1226	75.0048	1.0375771826087
0	1228	75.00512	1.0378910608696
0	1229	75.00512	1.0470507130435
0	1230	75.00512	1.0034236
0	1231	75.00544	1.0037244
0	1232	75.00544	1.0040252
0	1233	75.00544	1.004326
0	1234	75.00576	1.0046268
0	1235	75.00576	1.0049276
0	1236	75.00608	1.0052284
0	1237	75.00608	1.0055292
0	1238	75.00608	1.00583
0	1239	75.0064	1.0061308
0	1240	75.0064	1.0064316
0	1241	75.00672	1.0067324
0	1242	75.00704	1.0070332
0	1243	75.00768	1.007334
0	1244	75.00768	1.0076348
0	1245	75.00832	1.0079356
0	1246	75.00864	1.0082364
0	1249	75.0096	1.0085372
0	1251	75.00992	1.008838
0	1252	75.00992	1.0091388
0	1253	75.00992	1.0179168
0	1254	75.00992	0.97720012799999
0	1255	75.01024	0.97748889599999
0	1256	75.01056	0.97777766399999
0	1259	80	0.97806643199999
0	1260	80	0.97835519999999
0	1261	80	0.97864396799999
0	1265	80.00032	0.97893273599999
0	1266	80.00032	0.97922150399999
0	1267	80.00032	0.97951027199999
0	1268	80.00032	0.98793715199998
0	1269	80.00032	0.99636403199998
0	1270	80.00032	1.004790912
0	1274	80.00064	1.00507968
0	1275	80.00064	1.005368448
0	1276	80.00064	1.005657216
0	1277	80.00096	1.005945984
0	1278	80.00096	1.006234752
0	1279	80.00128	1.00652352
0	1280	80.0016	1.006812288
0	1281	80.00192	1.007101056
0	1282	80.00192	1.007389824
0	1283	80.00224	1.007678592
0	1284	80.00224	1.00796736
0	1285	80.00224	1.008256128
0	1286	80.00256	1.008544896
0	1287	80.00256	1.008833664
0	1288	80.00256	1.009122432
0	1289	80.00256	1.0094112
0	1290	80.00256	1.009699968
0	1291	80.00288	1.009988736
0	1292	80.0032	1.010277504
0	1293	80.00384	1.010566272
0	1294	80.00416	1.01085504
0	1295	80.00448	1.011143808
0	1302	80.0048	1.011432576
0	1304	80.00512	1.011721344
0	1305	80.00512	1.012010112
0	1306	80.00512	1.020436992
0	1307	80.00512	0.9811894153846
0	1308	80.00544	0.98146707692306
0	1309	80.00576	0.98174473846152
0	1310	80.00608	0.98202239999998