version 3
run General-0-20231027-14:10:46-43257
attr configname General
attr datetime 20231027-14:10:46
attr datetimef 20231027-141046
attr experiment General
attr inifile omnetpp.ini
attr iterationvars ""
attr iterationvarsd ""
attr iterationvarsf ""
attr measurement ""
attr network SourceSink
attr processid 43257
attr repetition 0
attr replication #0
attr resultdir results
attr runnumber 0
attr seedset 0
config network SourceSink
config repeat 10
config seed-set 0
config simtime-resolution ps
config **.macMinBE_value 3
config **.macMaxBE_value 4
config **.macMaxCSMABackoffs_value 2
config SourceSink.n 5
config **.cmdenv-log-level info

vector 0 SourceSink stat_avg_energy_cons:vector ETV
attr interpolationmode none
attr recordingmode vector
attr source sig_avg_energy_cons
attr title "Average energy consumption (per received package) (mJ)"
vector 1 SourceSink stat_energy_cons:vector ETV
attr interpolationmode none
attr recordingmode vector
attr source sig_energy_cons
attr title "Total energy consumption (mJ)"
vector 2 SourceSink stat_avg_latency:vector ETV
attr interpolationmode none
attr recordingmode vector
attr source sig_avg_latency
attr title "Average latency (per received package) (ms)"
vector 3 SourceSink stat_pkts_received:vector ETV
attr interpolationmode none
attr recordingmode vector
attr source sig_pkts_received
attr title "Total received packets (on the entire network)"
vector 4 SourceSink.sink[0] stat_pkts_received_net:vector ETV
attr interpolationmode none
attr recordingmode vector
attr source sig_pkts_received_net
attr title "Total amount of collisions received packets (on this sink) "
vector 5 SourceSink stat_avg_delivery_ratio:vector ETV
attr interpolationmode none
attr recordingmode vector
attr source sig_avg_delivery_ratio
attr title "Average delivery ratio (%)"
vector 6 SourceSink stat_avg_retries:vector ETV
attr interpolationmode none
attr recordingmode vector
attr source sig_avg_retries
attr title "Average amount of retries (per received packet)"
vector 7 SourceSink stat_retries:vector ETV
attr interpolationmode none
attr recordingmode vector
attr source sig_retries
attr title "Total amount of retries"
vector 8 SourceSink stat_latency:vector ETV
attr interpolationmode none
attr recordingmode vector
attr source sig_latency
attr title "Total latency (ms)"
vector 9 SourceSink stat_pkts_timeout:vector ETV
attr interpolationmode none
attr recordingmode vector
attr source sig_pkts_timeout
attr title "Total packtes that timed-out (dropped)"
vector 10 SourceSink stat_pkts_dropped:vector ETV
attr interpolationmode none
attr recordingmode vector
attr source sig_pkts_dropped
attr title "Total dropped packets (dropped due to timeout or collision, on entire network)"
vector 11 SourceSink stat_collided:vector ETV
attr interpolationmode none
attr recordingmode vector
attr source sig_collided
attr title "Total collisions (on the entire network)"
vector 12 SourceSink.sink[0] stat_collided_net:vector ETV
attr interpolationmode none
attr recordingmode vector
attr source sig_collided_net
attr title "Total amount of collision (on this channel)"
vector 13 SourceSink.sink[1] stat_collided_net:vector ETV
attr interpolationmode none
attr recordingmode vector
attr source sig_collided_net
attr title "Total amount of collision (on this channel)"
vector 14 SourceSink.sink[1] stat_pkts_received_net:vector ETV
attr interpolationmode none
attr recordingmode vector
attr source sig_pkts_received_net
attr title "Total amount of collisions received packets (on this sink) "
0	1	0	inf
0	3	0.00032	inf
0	4	0.00032	0.2178912
0	5	0.00064	0.2251104
0	6	0.00096	0.2323296
0	7	0.00096	0.2395488
0	8	0.00096	0.246768
0	9	0.00128	0.2539872
0	10	0.0016	0.2612064
0	11	0.0016	0.2684256
0	12	0.0016	0.2756448
0	13	0.00224	0.282864
0	14	0.00288	0.2900832
0	15	0.0032	0.2973024
0	16	0.00352	0.3045216
0	17	0.00384	0.3117408
0	20	0.00512	0.31896
0	21	0.00512	0.3261792
0	24	0.00544	0.3333984
0	25	0.00544	0.5440704
0	26	0.00544	0.7547424
0	29	0.00608	0.7619616
0	30	0.00608	0.7691808
0	31	0.0064	0.7764
0	32	0.00864	0.7836192
0	33	0.00896	0.7908384
0	38	0.0112	0.7980576
0	40	0.01152	1.0087296
0	41	0.01152	0.5043648
0	44	5	0.5079744
0	45	5	0.511584
0	46	5	0.5151936
0	50	5.00032	0.5188032
0	51	5.00032	0.6241392
0	52	5.00032	0.7294752
0	53	5.00032	0.8348112
0	57	5.00064	0.8384208
0	58	5.00096	0.8420304
0	59	5.00128	0.84564
0	60	5.0016	0.8492496
0	61	5.0016	0.8528592
0	62	5.00192	0.8564688
0	63	5.00192	0.8600784
0	64	5.00224	0.863688
0	65	5.00256	0.8672976
0	66	5.0032	0.8709072
0	67	5.00384	0.8745168
0	68	5.00448	0.8781264
0	75	5.00512	0.881736
0	76	5.00512	0.8853456
0	79	5.00544	0.9906816
0	80	5.00544	1.0960176
0	83	5.00768	1.0996272
0	88	5.00992	1.1032368
0	90	5.01024	1.2085728
0	91	5.01024	0.8057152
0	94	10	0.8081216
0	96	10.00032	0.810528
0	97	10.00032	0.880752
0	98	10.00032	0.660564
0	99	10.00064	0.6623688
0	100	10.00096	0.6641736
0	101	10.00128	0.6659784
0	102	10.00192	0.6677832
0	103	10.00192	0.669588
0	104	10.00224	0.6713928
0	105	10.00224	0.6731976
0	106	10.00256	0.6750024
0	107	10.00352	0.6768072
0	108	10.00384	0.678612
0	109	10.00448	0.6804168
0	112	10.0048	0.6822216
0	114	10.00512	0.6840264
0	115	10.00512	0.6858312
0	116	10.00512	0.687636
0	117	10.00512	0.740304
0	118	10.00512	0.5922432
0	119	10.00576	0.59368704
0	120	10.00704	0.59513088
0	121	10.00768	0.59657472
0	122	10.008	0.59801856
0	123	10.00864	0.5994624
0	126	10.00992	0.60090624
0	128	10.01024	0.64304064
0	129	10.01024	0.5358672
0	130	10.0128	0.5370704
0	133	15	0.5382736
0	135	15.00032	0.5394768
0	136	15.00032	0.5745888
0	137	15.00032	0.49250468571428
0	138	15.00128	0.493536
0	139	15.00128	0.49456731428571
0	140	15.00128	0.49559862857143
0	141	15.0016	0.49662994285714
0	142	15.0016	0.49766125714286
0	143	15.0016	0.49869257142857
0	144	15.0016	0.49972388571428
0	145	15.00192	0.5007552
0	146	15.00224	0.50178651428571
0	147	15.00256	0.50281782857143
0	148	15.00256	0.50384914285714
0	149	15.0032	0.50488045714286
0	150	15.0032	0.50591177142857
0	151	15.0032	0.50694308571428
0	152	15.0032	0.5079744
0	153	15.00352	0.50900571428571
0	154	15.00384	0.51003702857143
0	157	15.00576	0.51106834285714
0	159	15.00608	0.51209965714286
0	160	15.00608	0.54219565714286
0	161	15.00608	0.4744212
0	162	15.0064	0.4753236
0	163	15.00704	0.476226
0	164	15.00704	0.4771284
0	165	15.00864	0.4780308
0	168	20.00064	0.4789332
0	169	20.00064	0.4798356
0	170	20.00064	0.480738
0	171	20.00064	0.4816404
0	176	20.00096	0.4825428
0	177	20.00096	0.4834452
0	178	20.00096	0.4843476
0	179	20.00096	0.5106816
0	180	20.00096	0.5370156
0	181	20.00096	0.5633496
0	182	20.00096	0.5896836
0	187	20.0016	0.590586
0	188	20.0016	0.5914884
0	189	20.00224	0.5923908
0	190	20.0032	0.5932932
0	191	20.00416	0.5941956
0	192	20.00512	0.595098
0	201	20.00576	0.5960004
0	203	20.00608	0.5969028
0	204	20.00608	0.5978052
0	205	20.00608	0.6241392
0	206	20.00608	0.5547904
0	207	20.0064	0.55559253333333
0	208	20.008	0.55639466666667
0	211	25	0.5571968
0	212	25	0.55799893333333
0	215	25.00032	0.58140693333333
0	216	25.00032	0.60481493333333
0	219	25.00064	0.60561706666667
0	220	25.00096	0.6064192
0	221	25.00096	0.60722133333333
0	222	25.00096	0.60802346666667
0	223	25.00192	0.6088256
0	224	25.00192	0.60962773333333
0	225	25.00192	0.61042986666667
0	226	25.00224	0.611232
0	227	25.00256	0.61203413333333
0	228	25.00288	0.61283626666667
0	229	25.00352	0.6136384
0	234	25.00544	0.61444053333333
0	235	25.00544	0.61524266666667
0	238	25.00576	0.6160448
0	239	25.00576	0.61684693333333
0	240	25.00576	0.64025493333333
0	241	25.00576	0.66366293333333
0	244	25.0064	0.66446506666667
0	245	25.0064	0.6652672
0	246	25.00704	0.66606933333333
0	247	25.00768	0.66687146666667
0	252	30	0.6676736
0	253	30	0.66847573333333
0	256	30.00032	0.69188373333333
0	257	30.00032	0.71529173333333
0	260	30.00064	0.71609386666667
0	261	30.00096	0.716896
0	262	30.00128	0.71769813333333
0	263	30.00192	0.71850026666667
0	264	30.00192	0.7193024
0	265	30.00224	0.72010453333333
0	266	30.00256	0.72090666666667
0	267	30.00256	0.7217088
0	268	30.00256	0.72251093333333
0	273	30.0048	0.72331306666667
0	274	30.0048	0.7241152
0	277	30.00512	0.72491733333333
0	278	30.00512	0.74832533333333
0	279	30.00512	0.77173333333333
0	282	30.00544	0.77253546666667
0	283	30.0064	0.7733376
0	284	30.00704	0.77413973333333
0	285	30.00864	0.77494186666667
0	286	30.00928	0.775744
0	291	30.01024	0.77654613333333
0	293	30.01056	0.79995413333333
0	294	30.01056	0.71995872
0	295	30.01216	0.72068064
0	298	35.00032	0.72140256
0	300	35.00064	0.74246976
0	301	35.00064	0.67497250909091
0	302	35.00096	0.6756288
0	303	35.00128	0.67628509090909
0	304	35.00192	0.67694138181818
0	305	35.00192	0.67759767272727
0	306	35.00256	0.67825396363636
0	307	35.00256	0.67891025454545
0	308	35.00256	0.67956654545455
0	309	35.00256	0.68022283636364
0	310	35.00256	0.68087912727273
0	311	35.00288	0.68153541818182
0	312	35.00384	0.68219170909091
0	313	35.00448	0.682848
0	314	35.0048	0.68350429090909
0	317	35.00544	0.68416058181818
0	319	35.00576	0.70331258181818
0	320	35.00576	0.6447032
0	321	35.00608	0.6453048
0	322	35.00608	0.6459064
0	323	35.0064	0.646508
0	324	35.00672	0.6471096
0	325	35.00704	0.6477112
0	326	35.00736	0.6483128
0	327	35.00768	0.6489144
0	328	35.00832	0.649516
0	331	35.01088	0.6501176
0	333	35.0112	0.6676736
0	334	35.0112	0.61631409230769
0	337	40.00064	0.61686941538462
0	339	40.00096	0.61742473846154
0	340	40.00096	0.61798006153846
0	341	40.00096	0.61853538461539
0	342	40.00096	0.63474092307692
0	343	40.00096	0.58940228571429
0	344	40.0016	0.58991794285714
0	345	40.00224	0.5904336
0	346	40.00224	0.59094925714286
0	347	40.00224	0.59146491428571
0	348	40.00256	0.59198057142857
0	349	40.00256	0.59249622857143
0	350	40.00256	0.59301188571429
0	351	40.00288	0.59352754285714
0	352	40.0032	0.5940432
0	353	40.00352	0.59455885714286
0	354	40.00416	0.59507451428572
0	355	40.00416	0.59559017142857
0	356	40.00416	0.59610582857143
0	357	40.00512	0.59662148571429
0	360	40.00544	0.59713714285714
0	361	40.00544	0.5976528
0	364	40.00576	0.6127008
0	365	40.00576	0.6277488
0	368	40.00672	0.62826445714286
0	369	40.00704	0.62878011428572
0	370	40.0096	0.62929577142857
0	375	40.01056	0.62981142857143
0	377	40.01088	0.64485942857143
0	378	40.01088	0.6018688
0	381	45	0.60235008
0	382	45	0.60283136
0	385	45.00032	0.60331264
0	386	45.00032	0.61735744
0	387	45.00032	0.63140224
0	390	45.00096	0.63188352
0	391	45.00096	0.6323648
0	392	45.00128	0.63284608
0	393	45.00128	0.63332736
0	394	45.0016	0.63380864
0	395	45.00224	0.63428992
0	396	45.00224	0.6347712
0	397	45.00256	0.63525248
0	398	45.00256	0.63573376
0	399	45.00288	0.63621504
0	400	45.0032	0.63669632
0	401	45.00352	0.6371776
0	402	45.00352	0.63765888
0	407	45.00544	0.63814016
0	409	45.00576	0.63862144
0	410	45.00576	0.63910272
0	411	45.00576	0.65314752
0	412	45.00576	0.6123258
0	413	45.0064	0.612777
0	414	45.0064	0.6132282
0	415	45.00768	0.6136794
0	416	45.008	0.6141306
0	419	50	0.6145818
0	421	50.00032	0.615033
0	422	50.00032	0.6154842
0	423	50.00032	0.6286512
0	424	50.00032	0.59167171764706
0	425	50.00064	0.59209637647059
0	426	50.00064	0.59252103529412
0	427	50.00096	0.59294569411765
0	428	50.0016	0.59337035294118
0	429	50.00192	0.59379501176471
0	430	50.00192	0.59421967058824
0	431	50.00224	0.59464432941177
0	432	50.00224	0.5950689882353
0	433	50.00224	0.59549364705882
0	434	50.00256	0.59591830588235
0	435	50.00384	0.59634296470588
0	436	50.00384	0.59676762352941
0	437	50.00416	0.59719228235294
0	440	50.0048	0.59761694117647
0	441	50.0048	0.5980416
0	444	50.00512	0.61043407058824
0	445	50.00512	0.62282654117647
0	448	50.00576	0.6232512
0	449	50.0064	0.62367585882353
0	450	50.00672	0.62410051764706
0	451	50.00736	0.62452517647059
0	452	50.00736	0.62494983529412
0	453	50.00768	0.62537449411765
0	458	55	0.62579915294118
0	460	55.00032	0.63819162352941
0	461	55.00032	0.60273653333333
0	462	55.00096	0.6031376
0	463	55.00128	0.60353866666667
0	464	55.00128	0.60393973333333
0	465	55.0016	0.6043408
0	466	55.00192	0.60474186666667
0	467	55.00224	0.60514293333333
0	468	55.00256	0.605544
0	469	55.00256	0.60594506666667
0	470	55.0032	0.60634613333333
0	471	55.00448	0.6067472
0	472	55.00448	0.60714826666667
0	475	55.00512	0.60754933333333
0	477	55.00544	0.61925333333333
0	478	55.00544	0.58666105263158
0	479	55.00608	0.58704101052632
0	480	55.00608	0.58742096842105
0	481	55.0064	0.58780092631579
0	482	55.00672	0.58818088421053
0	483	55.00704	0.58856084210526
0	484	55.00736	0.5889408
0	485	55.00736	0.58932075789474
0	486	55.00768	0.58970071578948
0	489	55.00992	0.59008067368421
0	491	55.01024	0.60116867368421
0	492	55.01024	0.57111024
0	493	55.01088	0.5714712
0	494	55.01088	0.57183216
0	497	60	0.57219312
0	498	60	0.57255408
0	501	60.00032	0.57291504
0	502	60.00032	0.58344864
0	503	60.00032	0.59398224
0	506	60.00064	0.5943432
0	507	60.00096	0.59470416
0	508	60.0016	0.59506512
0	509	60.0016	0.59542608
0	510	60.00192	0.59578704
0	511	60.00192	0.596148
0	512	60.00256	0.59650896
0	513	60.0032	0.59686992
0	514	60.00384	0.59723088
0	515	60.00416	0.59759184
0	516	60.00448	0.5979528
0	521	60.00544	0.59831376
0	523	60.00576	0.60884736
0	524	60.00576	0.57985462857143
0	525	60.00608	0.5801984
0	526	60.00608	0.58054217142857
0	527	60.00672	0.58088594285714
0	528	60.00704	0.58122971428572
0	529	60.00736	0.58157348571429
0	530	60.00864	0.58191725714286
0	531	60.00896	0.58226102857143
0	534	60.01056	0.5826048
0	536	60.01088	0.5926368
0	537	60.01088	0.56569876363637
0	540	65	0.56602690909091
0	542	65.00032	0.56635505454546
0	543	65.00032	0.57593105454546
0	544	65.00032	0.55089057391305
0	545	65.00064	0.55120445217391
0	546	65.00096	0.55151833043478
0	547	65.00128	0.55183220869565
0	548	65.00128	0.55214608695652
0	549	65.0016	0.55245996521739
0	550	65.00192	0.55277384347826
0	551	65.00224	0.55308772173913
0	552	65.00224	0.5534016
0	553	65.00256	0.55371547826087
0	554	65.00256	0.55402935652174
0	555	65.00256	0.55434323478261
0	556	65.00384	0.55465711304348
0	557	65.00384	0.55497099130435
0	558	65.00384	0.55528486956522
0	559	65.00448	0.55559874782609
0	560	65.00448	0.55591262608696
0	563	65.00512	0.55622650434783
0	565	65.00544	0.5565403826087
0	566	65.00544	0.56570003478261
0	567	65.00544	0.5421292
0	568	65.00608	0.54243
0	569	65.008	0.5427308
0	572	65.00992	0.5430316
0	574	65.01024	0.5518096
0	575	65.01024	0.529737216
0	576	65.0112	0.530025984
0	579	70	0.530314752
0	581	70.00032	0.53060352
0	582	70.00032	0.5390304
0	583	70.00032	0.51829846153846
0	584	70.00064	0.51857612307692
0	585	70.00096	0.51885378461539
0	586	70.00096	0.51913144615385
0	587	70.00128	0.51940910769231
0	588	70.00128	0.51968676923077
0	589	70.0016	0.51996443076923
0	590	70.0016	0.52024209230769
0	591	70.00192	0.52051975384616
0	592	70.00224	0.52079741538462
0	593	70.00224	0.52107507692308
0	594	70.00256	0.52135273846154
0	595	70.00256	0.5216304
0	596	70.0032	0.52190806153846
0	597	70.00384	0.52218572307692
0	598	70.00384	0.52246338461539
0	599	70.00384	0.52274104615385
0	600	70.00448	0.52301870769231
0	603	70.0048	0.52329636923077
0	605	70.00512	0.52357403076923
0	606	70.00512	0.5316768
0	607	70.00512	0.51198506666667
0	608	70.00544	0.51225244444445
0	609	70.00672	0.51251982222222
0	612	70.00992	0.5127872
0	614	70.01024	0.52058986666667
0	615	70.01024	0.50199737142857
0	618	75	0.5022552
0	620	75.00032	0.50251302857143
0	621	75.00032	0.51003702857143
0	622	75.00032	0.49244954482759
0	623	75.00064	0.49269848275862
0	624	75.00096	0.49294742068966
0	625	75.00096	0.49319635862069
0	626	75.00128	0.49344529655173
0	627	75.0016	0.49369423448276
0	628	75.0016	0.49394317241379
0	629	75.00192	0.49419211034483
0	630	75.00224	0.49444104827586
0	631	75.00256	0.4946899862069
0	632	75.00288	0.49493892413793
0	633	75.00288	0.49518786206897
0	634	75.0032	0.4954368
0	635	75.00352	0.49568573793104
0	636	75.00384	0.49593467586207
0	637	75.00416	0.49618361379311
0	640	75.0048	0.49643255172414
0	641	75.0048	0.49668148965517
0	644	75.00512	0.50394604137931
0	645	75.00512	0.51121059310345
0	648	75.00576	0.51145953103448
0	649	75.00576	0.51170846896552
0	650	75.00576	0.51195740689655
0	651	75.00704	0.51220634482759
0	652	75.00864	0.51245528275862
0	657	80	0.51270422068966
0	658	80	0.51295315862069
0	661	80.00032	0.52021771034483
0	662	80.00032	0.52748226206897
0	665	80.00064	0.5277312
0	666	80.00096	0.52798013793104
0	667	80.00096	0.52822907586207
0	668	80.00096	0.52847801379311
0	669	80.00128	0.52872695172414
0	670	80.0016	0.52897588965517
0	671	80.0016	0.52922482758621
0	672	80.00192	0.52947376551724
0	673	80.00224	0.52972270344828
0	674	80.0032	0.52997164137931
0	675	80.00352	0.53022057931035
0	676	80.00352	0.53046951724138
0	677	80.00416	0.53071845517242
0	682	80.0048	0.53096739310345
0	684	80.00512	0.53823194482759
0	685	80.00512	0.52029088
0	686	80.00544	0.52053152
0	687	80.00544	0.52077216
0	688	80.00608	0.5210128
0	689	80.00704	0.52125344
0	690	80.008	0.52149408
0	691	80.00864	0.52173472
0	694	80.00992	0.52197536
0	696	80.01024	0.52899776
0	697	80.01024	0.51193331612903
0	700	85.00064	0.51216619354839
0	702	85.00096	0.51239907096774
0	703	85.00096	0.51919494193549
0	704	85.00096	0.5029701
0	705	85.00128	0.5031957
0	706	85.00128	0.5034213
0	707	85.00192	0.5036469
0	708	85.00192	0.5038725
0	709	85.00224	0.5040981
0	710	85.00224	0.5043237
0	711	85.00224	0.5045493
0	712	85.00256	0.5047749
0	713	85.0032	0.5050005
0	714	85.0048	0.5052261
0	717	85.00576	0.5054517
0	718	85.00576	0.5056773
0	721	85.00608	0.5059029
0	722	85.00608	0.5061285
0	723	85.00608	0.512712
0	724	85.00608	0.5192955
0	727	85.00672	0.5195211
0	728	85.00704	0.5197467
0	729	85.00704	0.5199723
0	730	85.00704	0.5201979
0	731	85.00896	0.5204235
0	732	85.00928	0.5206491
0	737	85.01088	0.5208747
0	739	85.0112	0.5211003
0	740	85.0112	0.5276838
0	741	85.0112	0.51169338181818
0	744	90.00032	0.51191214545455
0	746	90.00064	0.51213090909091
0	747	90.00064	0.51234967272727
0	748	90.00064	0.51256843636364
0	749	90.00064	0.51895243636364
0	750	90.00064	0.50368912941176
0	751	90.00128	0.50390145882353
0	752	90.00128	0.50411378823529
0	753	90.0016	0.50432611764706
0	754	90.0016	0.50453844705882
0	755	90.0016	0.50475077647059
0	756	90.00192	0.50496310588235
0	757	90.00224	0.50517543529412
0	758	90.00256	0.50538776470588
0	759	90.0032	0.50560009411765
0	760	90.00448	0.50581242352941
0	761	90.00448	0.50602475294118
0	762	90.0048	0.50623708235294
0	765	90.00544	0.50644941176471
0	766	90.00544	0.50666174117647
0	769	90.00576	0.50687407058823
0	770	90.00576	0.51307030588235
0	771	90.00576	0.51926654117647
0	774	90.00704	0.51947887058823
0	775	90.00768	0.5196912
0	776	90.00992	0.51990352941176
0	781	90.01088	0.52011585882353
0	783	90.0112	0.52631209411765
0	784	90.0112	0.51127460571428
0	787	95	0.51148086857143
0	789	95.00032	0.51750006857143
0	790	95.00032	0.50312506666667
0	791	95.00096	0.5033256
0	792	95.00096	0.50352613333333
0	793	95.00128	0.50372666666667
0	794	95.0016	0.5039272
0	795	95.0016	0.50412773333333
0	796	95.00192	0.50432826666667
0	797	95.00192	0.5045288
0	798	95.00192	0.50472933333333
0	799	95.00256	0.50492986666667
0	800	95.0032	0.5051304
0	801	95.0032	0.50533093333333
0	802	95.00352	0.50553146666667
0	803	95.00352	0.505732
0	804	95.00384	0.50593253333333
0	807	95.00512	0.50613306666667
0	809	95.00544	0.5063336
0	810	95.00544	0.5121856
0	811	95.00544	0.49834274594594
0	812	95.00608	0.49853785945946
0	813	95.00608	0.49873297297297
0	814	95.0064	0.49892808648648
0	815	95.00672	0.4991232
0	816	95.00768	0.49931831351351
0	817	95.008	0.49951342702703
0	818	95.00928	0.49970854054054
0	821	100.00096	0.49990365405405
0	823	100.00128	0.50559749189189
0	824	100.00128	0.49229229473684
0	825	100.0016	0.49248227368421
0	826	100.0016	0.49267225263158
0	827	100.0016	0.49286223157895
0	828	100.00192	0.49305221052631
0	829	100.00192	0.49324218947368
0	830	100.00224	0.49343216842105
0	831	100.00224	0.49362214736842
0	832	100.00256	0.49381212631579
0	833	100.00288	0.49400210526316
0	834	100.00352	0.49419208421052
0	835	100.00352	0.49438206315789
0	836	100.00384	0.49457204210526
0	837	100.00416	0.49476202105263
0	838	100.00416	0.494952
0	839	100.00448	0.49514197894737
0	840	100.00448	0.49533195789473
0	841	100.00512	0.4955219368421
0	842	100.00512	0.49571191578947
0	845	100.00576	0.49590189473684
0	847	100.00608	0.50144589473684
0	848	100.00608	0.4885883076923
0	849	100.0064	0.48877341538461
0	850	100.00704	0.48895852307692
0	851	100.00704	0.48914363076923
0	852	100.00896	0.48932873846154
0	853	100.00896	0.48951384615384
0	856	105	0.48969895384615
0	857	105	0.48988406153846
0	860	105.00032	0.49006916923077
0	861	105.00032	0.49025427692307
0	862	105.00032	0.49565612307692
0	863	105.00032	0.50105796923077
0	866	105.00064	0.50124307692307
0	867	105.00128	0.50142818461538
0	868	105.0016	0.50161329230769
0	869	105.00192	0.5017984
0	870	105.00192	0.5019835076923
0	871	105.00192	0.50216861538461
0	872	105.00352	0.50235372307692
0	873	105.00384	0.50253883076923
0	874	105.00416	0.50272393846153
0	879	105.00512	0.50290904615384
0	880	105.00512	0.50309415384615
0	881	105.00512	0.50327926153846
0	885	105.00544	0.5086811076923
0	886	105.00544	0.51408295384615
0	887	105.00544	0.5194848
0	891	105.00608	0.5196699076923
0	892	105.00608	0.51985501538461
0	893	105.0096	0.52004012307692
0	900	105.01056	0.52022523076923
0	902	105.01088	0.52562707692307
0	903	105.01088	0.5124864
0	904	105.01152	0.51266688
0	907	110.00032	0.51284736
0	908	110.00032	0.51302784
0	911	110.00064	0.51320832
0	912	110.00064	0.51847512
0	913	110.00064	0.52374192
0	916	110.00096	0.5239224
0	917	110.00096	0.52410288
0	918	110.00128	0.52428336
0	919	110.0016	0.52446384
0	920	110.0016	0.52464432
0	921	110.00224	0.5248248
0	922	110.00224	0.52500528
0	923	110.0032	0.52518576
0	924	110.00416	0.52536624
0	925	110.00448	0.52554672
0	926	110.00448	0.5257272
0	931	110.00512	0.52590768
0	932	110.00512	0.52608816
0	935	110.00544	0.53135496
0	936	110.00544	0.53662176
0	939	110.0064	0.53680224
0	940	110.00672	0.53698272
0	941	110.00704	0.5371632
0	942	110.00768	0.53734368
0	943	110.00864	0.53752416
0	948	110.00992	0.53770464
0	950	110.01024	0.54297144
0	951	110.01024	0.52972823414634
0	954	115	0.52990431219512
0	956	115.00032	0.5300803902439
0	957	115.00032	0.53025646829268
0	958	115.00032	0.53539480975609
0	959	115.00032	0.52264731428571
0	960	115.00128	0.5228192
0	961	115.00128	0.52299108571428
0	962	115.0016	0.52316297142857
0	963	115.0016	0.52333485714285
0	964	115.0016	0.52350674285714
0	965	115.00224	0.52367862857142
0	966	115.00256	0.52385051428571
0	967	115.00256	0.5240224
0	968	115.00288	0.52419428571428
0	969	115.0032	0.52436617142857
0	970	115.00384	0.52453805714285
0	971	115.00384	0.52470994285714
0	972	115.00448	0.52488182857142
0	975	115.0048	0.52505371428571
0	977	115.00512	0.52522559999999
0	978	115.00512	0.53024159999999
0	979	115.00512	0.51791039999999
0	980	115.00576	0.51807828837209
0	981	115.00608	0.51824617674418
0	982	115.00608	0.51841406511627
0	983	115.00608	0.51858195348837
0	984	115.008	0.51874984186046
0	987	115.00992	0.51891773023255
0	989	115.01024	0.52381707906976
0	990	115.01024	0.51191214545454
0	993	120	0.51207621818181
0	995	120.00032	0.51686421818181
0	996	120.00032	0.50537834666666
0	997	120.00064	0.50553877333333
0	998	120.00064	0.50569919999999
0	999	120.00064	0.50585962666666
0	1000	120.00064	0.50602005333333
0	1001	120.00096	0.50618047999999
0	1002	120.00128	0.50634090666666
0	1003	120.00128	0.50650133333333
0	1004	120.00128	0.50666175999999
0	1005	120.00128	0.50682218666666
0	1006	120.00192	0.50698261333333
0	1007	120.00192	0.50714303999999
0	1008	120.0032	0.50730346666666
0	1009	120.00352	0.50746389333333
0	1010	120.00416	0.50762431999999
0	1013	120.0048	0.50778474666666
0	1014	120.0048	0.50794517333333
0	1017	120.00512	0.50810559999999
0	1018	120.00512	0.51278719999999
0	1019	120.00512	0.51746879999999
0	1022	120.00544	0.51762922666666
0	1023	120.00576	0.51778965333333
0	1024	120.00576	0.51795007999999
0	1025	120.00608	0.51811050666666
0	1026	120.008	0.51827093333333
0	1027	120.00864	0.51843135999999
0	1032	125.00032	0.51859178666666
0	1034	125.00064	0.51875221333333
0	1035	125.00064	0.52343381333333
0	1036	125.00064	0.5120548173913
0	1037	125.00096	0.51221175652173
0	1038	125.00128	0.51236869565217
0	1039	125.0016	0.5125256347826
0	1040	125.0016	0.51268257391304
0	1041	125.0016	0.51283951304347
0	1042	125.00192	0.51299645217391
0	1043	125.00256	0.51315339130434
0	1044	125.0032	0.51331033043478
0	1045	125.00384	0.51346726956521
0	1046	125.00448	0.51362420869565
0	1047	125.00448	0.51378114782608
0	1048	125.0048	0.51393808695652
0	1049	125.0048	0.51409502608695
0	1052	125.00512	0.51425196521738
0	1053	125.00512	0.51440890434782
0	1056	125.00544	0.51898873043478
0	1057	125.00544	0.52356855652173
0	1060	125.00576	0.52372549565217
0	1061	125.0064	0.5238824347826
0	1062	125.00704	0.52403937391304
0	1063	125.00832	0.52419631304347
0	1064	125.00896	0.52435325217391
0	1069	125.01024	0.52451019130434
0	1071	125.01056	0.5290900173913
0	1072	125.01056	0.51783278297872
0	1075	130	0.51798638297872
0	1076	130	0.51813998297872
0	1077	130	0.51829358297872
0	1081	130.00032	0.51844718297872
0	1082	130.00032	0.52292956595744
0	1083	130.00032	0.52741194893616
0	1084	130.00032	0.53189433191489
0	1088	130.00096	0.53204793191489
0	1089	130.00128	0.53220153191489
0	1090	130.00128	0.53235513191489
0	1091	130.0016	0.53250873191489
0	1092	130.00192	0.53266233191489
0	1093	130.00224	0.53281593191489
0	1094	130.0032	0.53296953191489
0	1095	130.00384	0.53312313191489
0	1096	130.00448	0.53327673191489
0	1097	130.00448	0.53343033191489
0	1104	130.00512	0.53358393191489
0	1106	130.00544	0.53806631489361
0	1107	130.00544	0.52685659999999
0	1108	130.00576	0.52700699999999
0	1109	130.00672	0.52715739999999
0	1110	130.00704	0.52730779999999
0	1113	130.00992	0.52745819999999
0	1114	130.00992	0.52760859999999
0	1117	130.01024	0.53199759999999
0	1118	130.01024	0.53638659999999
0	1121	130.0112	0.53653699999999
0	1126	135	0.53668739999999
0	1127	135	0.53683779999999
0	1130	135.00032	0.53698819999999
0	1131	135.00032	0.54137719999999
0	1132	135.00032	0.54576619999999
0	1135	135.00128	0.54591659999999
0	1136	135.00128	0.54606699999999
0	1137	135.00128	0.54621739999999
0	1138	135.00128	0.54636779999999
0	1139	135.0016	0.54651819999999
0	1140	135.00192	0.54666859999999
0	1141	135.00224	0.54681899999999
0	1142	135.00288	0.54696939999999
0	1143	135.00384	0.54711979999999
0	1148	135.00608	0.54727019999999
0	1149	135.00608	0.54742059999999
0	1152	135.0064	0.54757099999999
0	1153	135.0064	0.55195999999999
0	1154	135.0064	0.55634899999999
0	1157	135.00672	0.55649939999999
0	1158	135.00672	0.55664979999999
0	1159	135.00704	0.55680019999999
0	1160	135.00768	0.55695059999999
0	1161	135.008	0.55710099999999
0	1162	135.00928	0.55725139999999
0	1167	135.01152	0.55740179999999
0	1169	135.01184	0.56179079999999
0	1170	135.01184	0.55032568163265
0	1173	140	0.55047301224489
0	1175	140.00032	0.55062034285713
0	1176	140.00032	0.55491977142856
0	1177	140.00032	0.54382137599999
0	1178	140.00064	0.54396575999999
0	1179	140.00096	0.54411014399999
0	1180	140.00128	0.54425452799999
0	1181	140.00128	0.54439891199999
0	1182	140.0016	0.54454329599999
0	1183	140.0016	0.54468767999999
0	1184	140.0016	0.54483206399999
0	1185	140.00192	0.54497644799999
0	1186	140.00224	0.54512083199999
0	1187	140.00288	0.54526521599999
0	1188	140.0032	0.54540959999999
0	1189	140.00352	0.54555398399999
0	1190	140.00352	0.54569836799999
0	1191	140.00416	0.54584275199999
0	1192	140.00416	0.54598713599999
0	1195	140.0048	0.54613151999999
0	1197	140.00512	0.54627590399999
0	1198	140.00512	0.55048934399999
0	1199	140.00512	0.53969543529411
0	1200	140.00544	0.53983698823529
0	1201	140.00608	0.53997854117646
0	1202	140.00704	0.54012009411764
0	1203	140.00704	0.54026164705882
0	1204	140.00704	0.54040319999999
0	1207	140.01056	0.54054475294117
0	1209	140.01088	0.54467557647058
0	1210	140.01088	0.53420104615384
0	1213	145	0.53433987692307
0	1215	145.00032	0.5344787076923
0	1216	145.00032	0.53461753846153
0	1217	145.00032	0.53866892307691
0	1218	145.00032	0.52850535849056
0	1219	145.00096	0.52864156981131
0	1220	145.0016	0.52877778113207
0	1221	145.0016	0.52891399245282
0	1222	145.0016	0.52905020377358
0	1223	145.00192	0.52918641509433
0	1224	145.00192	0.52932262641509
0	1225	145.00256	0.52945883773584
0	1226	145.00256	0.5295950490566
0	1227	145.00256	0.52973126037735
0	1228	145.00288	0.5298674716981
0	1229	145.00352	0.53000368301886
0	1230	145.00448	0.53013989433961
0	1231	145.00448	0.53027610566037
0	1234	145.00576	0.53041231698112
0	1236	145.00608	0.53438726037735
0	1237	145.00608	0.52449119999999
0	1238	145.00704	0.52462488888888
0	1239	145.00768	0.52475857777777
0	1240	145.00832	0.52489226666666
0	1241	145.00832	0.52502595555555
0	1242	145.00928	0.52515964444444
0	1245	145.01216	0.52529333333332
0	1246	145.01216	0.52542702222221
0	1249	145.01248	0.52932835555555
0	1250	145.01248	0.53322968888888
0	1257	150	0.53336337777777
0	1258	150	0.53349706666666
0	1261	150.00032	0.53363075555555
0	1262	150.00032	0.53753208888888
0	1263	150.00032	0.54143342222221
0	1266	150.00064	0.5415671111111
0	1267	150.0016	0.54170079999999
0	1268	150.00192	0.54183448888888
0	1269	150.00192	0.54196817777777
0	1270	150.00224	0.54210186666666
0	1271	150.00224	0.54223555555555
0	1272	150.00224	0.54236924444444
0	1273	150.00224	0.54250293333332
0	1274	150.00256	0.54263662222221
0	1275	150.0032	0.5427703111111
0	1276	150.00416	0.54290399999999
0	1277	150.00448	0.54303768888888
0	1278	150.00448	0.54317137777777
0	1283	150.0048	0.54330506666666
0	1285	150.00512	0.54720639999999
0	1286	150.00512	0.53725719272726
0	1287	150.00544	0.53738845090908
0	1288	150.00576	0.5375197090909
0	1289	150.0064	0.53765096727272
0	1290	150.0064	0.53778222545454
0	1293	150.01056	0.53791348363635
0	1295	150.01088	0.54174388363635
0	1296	150.01088	0.53206988571428
0	1299	155.00032	0.53219879999999
0	1301	155.00064	0.53232771428571
0	1302	155.00064	0.5360897142857
0	1303	155.00064	0.52668463157894
0	1304	155.00096	0.52681128421052
0	1305	155.00128	0.5269379368421
0	1306	155.00128	0.52706458947367