version 3
run General-10-0-20231027-14:04:00-94823
attr configname General-10
attr datetime 20231027-14:04:00
attr datetimef 20231027-140400
attr experiment General-10
attr inifile omnetpp.ini
attr iterationvars ""
attr iterationvarsd ""
attr iterationvarsf ""
attr measurement ""
attr network SourceSink
attr processid 94823
attr repetition 0
attr replication #0
attr resultdir results
attr runnumber 0
attr seedset 0
config repeat 10
config seed-set 0
config **.macMinBE_value 3
config **.macMaxBE_value 4
config **.macMaxCSMABackoffs_value 2
config SourceSink.n 10
config **.cmdenv-log-level info
config network SourceSink
config repeat 10
config seed-set 0
config simtime-resolution ps
config **.macMinBE_value 3
config **.macMaxBE_value 4
config **.macMaxCSMABackoffs_value 2
config SourceSink.n 5
config **.cmdenv-log-level info

vector 0 SourceSink stat_avg_energy_cons:vector ETV
attr interpolationmode none
attr recordingmode vector
attr source sig_avg_energy_cons
attr title "Average energy consumption (per received package) (mJ)"
vector 1 SourceSink stat_energy_cons:vector ETV
attr interpolationmode none
attr recordingmode vector
attr source sig_energy_cons
attr title "Total energy consumption (mJ)"
vector 2 SourceSink stat_avg_latency:vector ETV
attr interpolationmode none
attr recordingmode vector
attr source sig_avg_latency
attr title "Average latency (per received package) (ms)"
vector 3 SourceSink stat_pkts_received:vector ETV
attr interpolationmode none
attr recordingmode vector
attr source sig_pkts_received
attr title "Total received packets (on the entire network)"
vector 4 SourceSink.sink[0] stat_pkts_received_net:vector ETV
attr interpolationmode none
attr recordingmode vector
attr source sig_pkts_received_net
attr title "Total amount of collisions received packets (on this sink) "
vector 5 SourceSink stat_avg_delivery_ratio:vector ETV
attr interpolationmode none
attr recordingmode vector
attr source sig_avg_delivery_ratio
attr title "Average delivery ratio (%)"
vector 6 SourceSink stat_avg_retries:vector ETV
attr interpolationmode none
attr recordingmode vector
attr source sig_avg_retries
attr title "Average amount of retries (per received packet)"
vector 7 SourceSink stat_retries:vector ETV
attr interpolationmode none
attr recordingmode vector
attr source sig_retries
attr title "Total amount of retries"
vector 8 SourceSink stat_collided:vector ETV
attr interpolationmode none
attr recordingmode vector
attr source sig_collided
attr title "Total collisions (on the entire network)"
vector 9 SourceSink.sink[1] stat_collided_net:vector ETV
attr interpolationmode none
attr recordingmode vector
attr source sig_collided_net
attr title "Total amount of collision (on this channel)"
vector 10 SourceSink stat_pkts_dropped:vector ETV
attr interpolationmode none
attr recordingmode vector
attr source sig_pkts_dropped
attr title "Total dropped packets (dropped due to timeout or collision, on entire network)"
vector 11 SourceSink stat_pkts_timeout:vector ETV
attr interpolationmode none
attr recordingmode vector
attr source sig_pkts_timeout
attr title "Total packtes that timed-out (dropped)"
vector 12 SourceSink stat_latency:vector ETV
attr interpolationmode none
attr recordingmode vector
attr source sig_latency
attr title "Total latency (ms)"
vector 13 SourceSink.sink[0] stat_collided_net:vector ETV
attr interpolationmode none
attr recordingmode vector
attr source sig_collided_net
attr title "Total amount of collision (on this channel)"
vector 14 SourceSink.sink[1] stat_pkts_received_net:vector ETV
attr interpolationmode none
attr recordingmode vector
attr source sig_pkts_received_net
attr title "Total amount of collisions received packets (on this sink) "
0	1	0	inf
0	3	0.00032	inf
0	4	0.00032	inf
0	5	0.00032	inf
0	6	0.00032	0.2323296
0	9	0.00064	0.2395488
0	10	0.00064	0.4502208
0	11	0.00064	0.6608928
0	14	0.00096	0.668112
0	15	0.00096	0.6753312
0	16	0.00096	0.6825504
0	17	0.00128	0.6897696
0	18	0.0016	0.6969888
0	19	0.0016	0.704208
0	20	0.00192	0.7114272
0	21	0.00192	0.7186464
0	22	0.00224	0.7258656
0	23	0.00224	0.7330848
0	24	0.00224	0.740304
0	25	0.00224	0.7475232
0	26	0.00224	0.7547424
0	27	0.00256	0.7619616
0	28	0.00256	0.7691808
0	29	0.00256	0.7764
0	30	0.00256	0.7836192
0	31	0.00256	0.7908384
0	32	0.00288	0.7980576
0	33	0.00288	0.8052768
0	34	0.00352	0.812496
0	35	0.00352	0.8197152
0	36	0.00384	0.8269344
0	37	0.00384	0.8341536
0	38	0.00384	0.8413728
0	39	0.00384	0.848592
0	40	0.00384	0.8558112
0	41	0.00416	0.8630304
0	44	0.0048	0.8702496
0	49	0.00544	0.8774688
0	50	0.00544	0.884688
0	53	0.00576	0.8919072
0	54	0.00576	1.1025792
0	55	0.00576	1.3132512
0	59	0.00608	1.3204704
0	60	0.00608	1.5311424
0	61	0.00608	0.7655712
0	62	0.0064	0.7691808
0	63	0.00672	0.7727904
0	64	0.00672	0.7764
0	65	0.00672	0.7800096
0	66	0.00704	0.7836192
0	67	0.00704	0.7872288
0	68	0.008	0.7908384
0	69	0.008	0.794448
0	70	0.00928	0.7980576
0	71	0.00992	0.8016672
0	78	0.01088	0.8052768
0	80	0.0112	0.9106128
0	81	0.0112	0.6070752
0	82	0.01184	0.6094816
0	85	5	0.611888
0	87	5.00032	0.6142944
0	88	5.00032	0.6845184
0	89	5.00032	0.5133888
0	91	5.00064	0.5151936
0	92	5.00064	0.5169984
0	93	5.00064	0.5696664
0	94	5.00064	0.45573312
0	95	5.00096	0.45717696
0	96	5.00128	0.4586208
0	97	5.00128	0.46006464
0	98	5.00128	0.46150848
0	99	5.00128	0.46295232
0	100	5.00128	0.46439616
0	101	5.0016	0.46584
0	102	5.0016	0.46728384
0	103	5.0016	0.46872768
0	104	5.00192	0.47017152
0	105	5.00192	0.47161536
0	106	5.00192	0.4730592
0	107	5.00192	0.47450304
0	108	5.00224	0.47594688
0	109	5.00224	0.47739072
0	110	5.00256	0.47883456
0	111	5.00256	0.4802784
0	112	5.00256	0.48172224
0	113	5.00256	0.48316608
0	114	5.00256	0.48460992
0	115	5.0032	0.48605376
0	116	5.00352	0.4874976
0	117	5.00352	0.48894144
0	118	5.00352	0.49038528
0	119	5.00384	0.49182912
0	120	5.00384	0.49327296
0	121	5.00384	0.4947168
0	122	5.00416	0.49616064
0	125	5.0048	0.49760448
0	128	5.00512	0.49904832
0	129	5.00512	0.50049216
0	132	5.00544	0.54262656
0	133	5.00544	0.58476096
0	136	5.00608	0.5862048
0	137	5.00608	0.58764864
0	138	5.00608	0.58909248
0	139	5.00608	0.59053632
0	140	5.00608	0.59198016
0	143	5.0064	0.593424
0	144	5.0064	0.59486784
0	145	5.0064	0.63700224
0	146	5.0064	0.67913664
0	149	5.00704	0.68058048
0	150	5.00736	0.68202432
0	151	5.00768	0.68346816
0	152	5.00768	0.684912
0	153	5.008	0.68635584
0	154	5.00896	0.68779968
0	155	5.0096	0.68924352
0	164	5.01088	0.69068736
0	166	5.0112	0.6921312
0	167	5.0112	0.7342656
0	168	5.0112	0.611888
0	169	5.01184	0.6130912
0	171	5.01216	0.6482032
0	172	5.01216	0.55560274285714
0	177	10	0.55663405714286
0	178	10	0.55766537142857
0	179	10	0.55869668571428
0	180	10	0.559728
0	185	10.00032	0.589824
0	186	10.00032	0.61992
0	187	10.00032	0.650016
0	188	10.00032	0.680112
0	193	10.00064	0.68114331428571
0	194	10.00064	0.68217462857143
0	195	10.00064	0.68320594285714
0	196	10.00096	0.68423725714286
0	197	10.00096	0.68526857142857
0	198	10.00096	0.68629988571428
0	199	10.00096	0.6873312
0	200	10.00128	0.68836251428571
0	201	10.00128	0.68939382857143
0	202	10.0016	0.69042514285714
0	203	10.0016	0.69145645714286
0	204	10.00192	0.69248777142857
0	205	10.00192	0.69351908571428
0	206	10.00192	0.6945504
0	207	10.00192	0.69558171428571
0	208	10.00224	0.69661302857143
0	209	10.00224	0.69764434285714
0	210	10.00256	0.69867565714286
0	211	10.00256	0.69970697142857
0	212	10.00288	0.70073828571428
0	213	10.0032	0.7017696
0	214	10.00352	0.70280091428571
0	215	10.00384	0.70383222857143
0	216	10.00384	0.70486354285714
0	217	10.00416	0.70589485714286
0	218	10.00448	0.70692617142857
0	219	10.00448	0.70795748571429
0	228	10.0048	0.7089888
0	230	10.00512	0.71002011428571
0	231	10.00512	0.74011611428571
0	232	10.00512	0.6476016
0	233	10.00544	0.648504
0	234	10.00544	0.6494064
0	236	10.00576	0.6757404
0	237	10.00576	0.60065813333333
0	238	10.00608	0.60146026666667
0	239	10.00672	0.6022624
0	240	10.00672	0.60306453333333
0	241	10.00672	0.60386666666667
0	242	10.00704	0.6046688
0	243	10.00768	0.60547093333333
0	244	10.008	0.60627306666667
0	245	10.00832	0.6070752
0	246	10.00896	0.60787733333333
0	247	10.00928	0.60867946666667
0	250	10.00992	0.6094816
0	253	10.0112	0.61028373333333
0	255	10.01152	0.63369173333333
0	256	10.01152	0.57032256
0	259	15.00032	0.57104448
0	260	15.00032	0.5717664
0	263	15.00064	0.57248832
0	264	15.00064	0.59355552
0	265	15.00064	0.61462272
0	266	15.00064	0.55874792727273
0	267	15.00064	0.5121856
0	268	15.00096	0.5127872
0	269	15.00096	0.5133888
0	270	15.00128	0.5139904
0	271	15.0016	0.514592
0	272	15.00192	0.5151936
0	273	15.00192	0.5157952
0	274	15.00192	0.5163968
0	275	15.00192	0.5169984
0	276	15.00224	0.5176
0	277	15.00224	0.5182016
0	278	15.00224	0.5188032
0	279	15.00256	0.5194048
0	280	15.00256	0.5200064
0	281	15.00256	0.520608
0	282	15.00256	0.5212096
0	283	15.00256	0.5218112
0	284	15.00256	0.5224128
0	285	15.00256	0.5230144
0	286	15.0032	0.523616
0	287	15.00352	0.5242176
0	288	15.00384	0.5248192
0	289	15.00384	0.5254208
0	290	15.00384	0.5260224
0	291	15.00448	0.526624
0	292	15.00448	0.5272256
0	293	15.00448	0.5278272
0	298	15.00512	0.5284288
0	300	15.00544	0.5290304
0	301	15.00544	0.529632
0	302	15.00544	0.547188
0	303	15.00544	0.50509661538462
0	304	15.00576	0.50565193846154
0	305	15.00576	0.50620726153846
0	306	15.00576	0.50676258461539
0	307	15.00576	0.50731790769231
0	309	15.00608	0.50787323076923
0	310	15.00608	0.50842855384615
0	311	15.00608	0.50898387692308
0	312	15.00608	0.52518941538462
0	313	15.00608	0.48767588571429
0	314	15.0064	0.48819154285714
0	315	15.00672	0.4887072
0	316	15.00704	0.48922285714286
0	317	15.00704	0.48973851428572
0	318	15.00704	0.49025417142857
0	319	15.00736	0.49076982857143
0	320	15.00768	0.49128548571429
0	321	15.008	0.49180114285714
0	322	15.008	0.4923168
0	323	15.00928	0.49283245714286
0	326	15.00992	0.49334811428572
0	328	15.01024	0.50839611428572
0	329	15.01024	0.47450304
0	332	15.01056	0.47498432
0	334	15.01088	0.48902912
0	335	15.01088	0.4584648
0	336	15.0128	0.458916
0	341	20	0.4593672
0	342	20	0.4598184
0	345	20.00032	0.4602696
0	346	20.00032	0.4607208
0	347	20.00032	0.4738878
0	348	20.00032	0.4870548
0	352	20.00064	0.487506
0	353	20.00064	0.4879572
0	354	20.00064	0.4884084
0	355	20.00064	0.4888596
0	356	20.00064	0.5020266
0	357	20.00064	0.47249562352941
0	358	20.00096	0.47292028235294
0	359	20.00096	0.47334494117647
0	360	20.00128	0.4737696
0	361	20.00128	0.47419425882353
0	362	20.00128	0.47461891764706
0	363	20.0016	0.47504357647059
0	364	20.0016	0.47546823529412
0	365	20.0016	0.47589289411765
0	366	20.00192	0.47631755294118
0	367	20.00192	0.47674221176471
0	368	20.00192	0.47716687058824
0	369	20.00224	0.47759152941177
0	370	20.00256	0.4780161882353
0	371	20.00256	0.47844084705882
0	372	20.00256	0.47886550588235
0	373	20.00256	0.47929016470588
0	374	20.00288	0.47971482352941
0	375	20.0032	0.48013948235294
0	376	20.0032	0.48056414117647
0	377	20.0032	0.4809888
0	378	20.00416	0.48141345882353
0	379	20.00416	0.48183811764706
0	380	20.00448	0.48226277647059
0	385	20.0048	0.48268743529412
0	389	20.00512	0.49507990588235
0	390	20.00512	0.46757546666667
0	391	20.00544	0.46797653333333
0	392	20.00544	0.4683776
0	393	20.00576	0.46877866666667
0	394	20.00576	0.46917973333333
0	395	20.00576	0.4695808
0	396	20.00576	0.46998186666667
0	398	20.00608	0.48168586666667
0	399	20.00608	0.45633397894737
0	400	20.0064	0.45671393684211
0	401	20.0064	0.45709389473684
0	402	20.00672	0.45747385263158
0	403	20.00672	0.45785381052632
0	404	20.00672	0.45823376842105
0	405	20.00704	0.45861372631579
0	406	20.00736	0.45899368421053
0	407	20.00736	0.45937364210526
0	408	20.00768	0.4597536
0	409	20.00864	0.46013355789474
0	412	20.0096	0.46051351578947
0	415	20.01056	0.46089347368421
0	417	20.01088	0.47198147368421
0	418	20.01088	0.4483824
0	421	25	0.44874336
0	422	25	0.44910432
0	423	25	0.44946528
0	428	25.00032	0.44982624
0	429	25.00032	0.4501872
0	430	25.00032	0.4607208
0	431	25.00032	0.4712544
0	432	25.00032	0.481788
0	436	25.00064	0.48214896
0	437	25.00096	0.48250992
0	438	25.00096	0.48287088
0	439	25.00128	0.48323184
0	440	25.00128	0.4835928
0	441	25.00128	0.48395376
0	442	25.00128	0.48431472
0	443	25.00128	0.48467568
0	444	25.0016	0.48503664
0	445	25.00192	0.4853976
0	446	25.00192	0.48575856
0	447	25.00192	0.48611952
0	448	25.00224	0.48648048
0	449	25.00224	0.48684144
0	450	25.00224	0.4872024
0	451	25.00256	0.48756336
0	452	25.00288	0.48792432
0	453	25.00288	0.48828528
0	454	25.00288	0.48864624
0	455	25.0032	0.4890072
0	456	25.00352	0.48936816
0	457	25.00352	0.48972912
0	458	25.00416	0.49009008
0	459	25.00416	0.49045104
0	468	25.00512	0.490812
0	469	25.00512	0.49117296
0	472	25.00544	0.49153392
0	473	25.00544	0.49189488
0	474	25.00544	0.49225584
0	475	25.00544	0.50278944
0	476	25.00544	0.51332304
0	482	25.00576	0.52385664
0	483	25.00576	0.53439024
0	484	25.00576	0.54492384
0	488	25.0064	0.5452848
0	489	25.0064	0.54564576
0	490	25.0064	0.54600672
0	491	25.0064	0.54636768
0	492	25.00672	0.54672864
0	493	25.00672	0.5470896
0	494	25.00736	0.54745056
0	495	25.00896	0.54781152
0	496	25.00896	0.54817248
0	497	25.00928	0.54853344
0	508	25.01088	0.5488944
0	510	25.0112	0.559428
0	511	25.0112	0.53278857142857
0	512	25.01184	0.53313234285714
0	513	25.01184	0.53347611428572
0	515	25.01216	0.54350811428572
0	516	25.01216	0.5188032
0	521	30	0.51913134545455
0	522	30	0.51945949090909
0	525	30.00032	0.51978763636364
0	526	30.00032	0.52011578181818
0	527	30.00032	0.52969178181818
0	528	30.00032	0.53926778181818
0	533	30.00064	0.53959592727273
0	534	30.00064	0.53992407272727
0	535	30.00064	0.54950007272727
0	536	30.00064	0.55907607272727
0	539	30.00096	0.55940421818182
0	540	30.00128	0.55973236363637
0	541	30.00128	0.56006050909091
0	542	30.0016	0.56038865454546
0	543	30.00192	0.5607168
0	544	30.00192	0.56104494545455
0	545	30.00192	0.56137309090909
0	546	30.00192	0.56170123636364
0	547	30.00192	0.56202938181818
0	548	30.00224	0.56235752727273
0	549	30.00224	0.56268567272727
0	550	30.00224	0.56301381818182
0	551	30.00224	0.56334196363637
0	552	30.00224	0.56367010909091
0	553	30.00256	0.56399825454546
0	554	30.00256	0.5643264
0	555	30.00256	0.56465454545455
0	556	30.00288	0.56498269090909
0	557	30.0032	0.56531083636364
0	558	30.00352	0.56563898181818
0	559	30.00352	0.56596712727273
0	560	30.00384	0.56629527272727
0	561	30.00384	0.56662341818182
0	562	30.00416	0.56695156363637
0	567	30.0048	0.56727970909091
0	573	30.00512	0.56760785454546
0	574	30.00512	0.567936
0	575	30.00512	0.577512
0	576	30.00512	0.5524027826087
0	579	30.00544	0.56156243478261
0	580	30.00544	0.57072208695652
0	583	30.00576	0.57103596521739
0	584	30.0064	0.57134984347826
0	585	30.0064	0.57166372173913
0	586	30.0064	0.5719776
0	587	30.00736	0.57229147826087
0	588	30.00736	0.57260535652174
0	589	30.00768	0.57291923478261
0	590	30.00768	0.57323311304348
0	591	30.008	0.57354699130435
0	592	30.008	0.57386086956522
0	593	30.00928	0.57417474782609
0	596	30.0096	0.57448862608696
0	601	30.01024	0.57480250434783
0	603	30.01056	0.58396215652174
0	604	30.01056	0.5596304
0	607	35	0.5599312
0	610	35.00032	0.560232
0	611	35.00032	0.5605328
0	612	35.00032	0.5608336
0	613	35.00032	0.5611344
0	614	35.00032	0.5699124
0	615	35.00032	0.547115904
0	616	35.00064	0.547404672
0	617	35.00064	0.54769344
0	618	35.00064	0.547982208
0	619	35.00064	0.548270976
0	620	35.00096	0.548559744
0	621	35.00096	0.548848512
0	622	35.00096	0.54913728
0	623	35.00096	0.549426048
0	624	35.00128	0.549714816
0	625	35.00128	0.550003584
0	626	35.00128	0.550292352
0	627	35.0016	0.55058112
0	628	35.0016	0.550869888
0	629	35.00192	0.551158656
0	630	35.00192	0.551447424
0	631	35.00192	0.551736192
0	632	35.00224	0.55202496
0	633	35.00224	0.552313728
0	634	35.00256	0.552602496
0	635	35.00256	0.552891264
0	636	35.00256	0.553180032
0	637	35.00288	0.5534688
0	638	35.0032	0.553757568
0	639	35.00352	0.554046336
0	640	35.00352	0.554335104
0	641	35.00352	0.554623872
0	642	35.00352	0.55491264
0	643	35.00352	0.555201408
0	644	35.00384	0.555490176
0	645	35.00384	0.555778944
0	646	35.00384	0.556067712
0	647	35.00384	0.55635648
0	648	35.00416	0.556645248
0	649	35.00448	0.556934016
0	650	35.00448	0.557222784
0	655	35.0048	0.557511552
0	656	35.0048	0.55780032
0	657	35.0048	0.558089088
0	661	35.00512	0.558377856
0	662	35.00512	0.566804736
0	663	35.00512	0.575231616
0	664	35.00512	0.583658496
0	667	35.00512	0.56121009230769
0	668	35.00544	0.56148775384616
0	669	35.00576	0.56176541538462
0	670	35.00576	0.56204307692308
0	671	35.00608	0.56232073846154
0	672	35.0064	0.5625984
0	673	35.00704	0.56287606153846
0	674	35.008	0.56315372307693
0	675	35.00832	0.56343138461539
0	682	35.0096	0.56370904615385
0	684	35.00992	0.57181181538462
0	685	35.00992	0.5506336
0	686	35.01056	0.55090097777778
0	688	35.01088	0.55870364444445
0	689	35.01088	0.53874994285715
0	694	40.00032	0.53900777142857
0	695	40.00032	0.5392656
0	698	40.00064	0.53952342857143
0	699	40.00064	0.53978125714286
0	700	40.00064	0.54003908571429
0	701	40.00064	0.54029691428572
0	702	40.00064	0.54055474285715
0	703	40.00064	0.54807874285715
0	704	40.00064	0.55560274285715
0	709	40.00096	0.55586057142857
0	710	40.00096	0.5561184
0	711	40.00096	0.55637622857143
0	712	40.00096	0.56390022857143
0	713	40.00096	0.57142422857143
0	716	40.00128	0.57168205714286
0	717	40.00128	0.57193988571429
0	718	40.00128	0.57219771428572
0	719	40.00128	0.57245554285714
0	720	40.00128	0.57271337142857
0	721	40.00192	0.5729712
0	722	40.00192	0.57322902857143
0	723	40.00224	0.57348685714286
0	724	40.00224	0.57374468571429
0	725	40.00224	0.57400251428572
0	726	40.00288	0.57426034285714
0	727	40.00352	0.57451817142857
0	728	40.00384	0.574776
0	729	40.00384	0.57503382857143
0	730	40.00448	0.57529165714286
0	731	40.0048	0.57554948571429
0	732	40.0048	0.57580731428572
0	737	40.00512	0.57606514285714
0	742	40.00544	0.57632297142857
0	743	40.00544	0.5765808
0	744	40.00544	0.57683862857143
0	748	40.00576	0.57709645714286
0	749	40.00576	0.58462045714286
0	750	40.00576	0.59214445714286
0	751	40.00576	0.59966845714286
0	753	40.00576	0.57899023448276
0	755	40.00608	0.57923917241379
0	756	40.00608	0.57948811034483
0	757	40.00608	0.57973704827586
0	758	40.0064	0.5799859862069
0	759	40.0064	0.58023492413793
0	760	40.00672	0.58048386206897
0	761	40.00704	0.5807328
0	762	40.00704	0.58098173793103
0	763	40.00736	0.58123067586207
0	764	40.00928	0.5814796137931
0	765	40.00928	0.58172855172414
0	766	40.00992	0.58197748965517
0	767	40.00992	0.58222642758621
0	774	40.01056	0.58247536551724
0	776	40.01088	0.58973991724138
0	777	40.01088	0.57008192
0	778	40.01152	0.57032256
0	780	40.01184	0.57734496
0	781	40.01184	0.55872092903226
0	786	45	0.55895380645161
0	787	45	0.55918668387097
0	791	45.00032	0.55941956129032
0	792	45.00032	0.55965243870968
0	793	45.00032	0.55988531612903
0	794	45.00032	0.56668118709677
0	795	45.00032	0.57347705806452
0	797	45.00032	0.5555559
0	798	45.00064	0.5557815
0	799	45.00064	0.5560071
0	800	45.00064	0.5562327
0	801	45.00096	0.5564583
0	802	45.00096	0.5566839
0	803	45.00096	0.5569095
0	804	45.00128	0.5571351
0	805	45.0016	0.5573607
0	806	45.0016	0.5575863
0	807	45.00192	0.5578119
0	808	45.00256	0.5580375
0	809	45.00256	0.5582631
0	810	45.00256	0.5584887
0	811	45.00256	0.5587143
0	812	45.00256	0.5589399
0	813	45.00256	0.5591655
0	814	45.00256	0.5593911
0	815	45.00256	0.5596167
0	816	45.00256	0.5598423
0	817	45.00256	0.5600679
0	818	45.00288	0.5602935
0	819	45.00288	0.5605191
0	820	45.0032	0.5607447
0	821	45.00416	0.5609703
0	822	45.00448	0.5611959
0	823	45.00448	0.5614215
0	824	45.00448	0.5616471
0	831	45.0048	0.5618727
0	832	45.0048	0.5620983
0	835	45.00512	0.5686818
0	836	45.00512	0.5752653
0	839	45.00544	0.5754909
0	841	45.00576	0.5757165
0	842	45.00576	0.5759421
0	843	45.00576	0.5825256
0	844	45.00576	0.56487330909091
0	845	45.00608	0.56509207272727
0	846	45.00608	0.56531083636363
0	847	45.0064	0.5655296
0	848	45.00672	0.56574836363636
0	849	45.00704	0.56596712727273
0	850	45.00736	0.56618589090909
0	851	45.00768	0.56640465454545
0	852	45.00768	0.56662341818182
0	853	45.008	0.56684218181818
0	854	45.008	0.56706094545454
0	855	45.00864	0.56727970909091
0	856	45.00864	0.56749847272727
0	857	45.00896	0.56771723636363
0	862	45.00992	0.567936
0	865	50	0.56815476363636
0	867	50.00032	0.56837352727272
0	868	50.00032	0.56859229090909
0	869	50.00032	0.56881105454545
0	870	50.00032	0.56902981818182
0	871	50.00032	0.57541381818182
0	872	50.00032	0.55848988235294
0	876	50.00064	0.5587022117647
0	877	50.00064	0.55891454117647
0	878	50.00064	0.55912687058823
0	879	50.00064	0.56532310588235
0	880	50.00064	0.57151934117647
0	881	50.00064	0.57771557647059
0	885	50.00096	0.57792790588235
0	886	50.00096	0.57814023529411
0	887	50.00096	0.57835256470588
0	888	50.00096	0.57856489411764
0	889	50.00128	0.57877722352941
0	890	50.00128	0.57898955294117
0	891	50.0016	0.57920188235294
0	892	50.0016	0.5794142117647
0	893	50.0016	0.57962654117647
0	894	50.0016	0.57983887058823
0	895	50.00224	0.5800512
0	896	50.00224	0.58026352941176
0	897	50.00224	0.58047585882353
0	898	50.00256	0.58068818823529
0	899	50.00288	0.58090051764706
0	900	50.0032	0.58111284705882
0	901	50.00416	0.58132517647058
0	902	50.00416	0.58153750588235
0	903	50.00416	0.58174983529411
0	904	50.00448	0.58196216470588
0	907	50.0048	0.58217449411764
0	908	50.0048	0.58238682352941
0	917	50.00512	0.58858305882353
0	918	50.00512	0.59477929411764
0	921	50.00544	0.59499162352941
0	922	50.00544	0.59520395294117
0	925	50.00576	0.59541628235294
0	926	50.00576	0.5956286117647
0	927	50.00576	0.59584094117647
0	928	50.00576	0.60203717647058
0	929	50.00576	0.6082334117647
0	932	50.0064	0.60844574117647
0	933	50.00672	0.60865807058823
0	934	50.00704	0.6088704
0	935	50.00768	0.60908272941176
0	936	50.00768	0.60929505882352
0	937	50.00896	0.60950738823529
0	938	50.00928	0.60971971764705
0	947	50.01088	0.60993204705882
0	949	50.0112	0.61014437647058
0	950	50.0112	0.6163406117647
0	951	50.0112	0.59873088
0	953	50.01152	0.60475008
0	954	50.01152	0.58795146666666
0	955	50.01184	0.588152
0	960	55	0.58835253333333
0	961	55	0.58855306666666
0	964	55.00032	0.5887536
0	965	55.00032	0.58895413333333
0	966	55.00032	0.58915466666666
0	967	55.00032	0.59500666666666
0	968	55.00032	0.60085866666666
0	969	55.00032	0.58461924324324
0	970	55.00032	0.56923452631578
0	971	55.00064	0.56942450526315
0	972	55.00064	0.56961448421052
0	973	55.00064	0.56980446315789
0	974	55.00096	0.56999444210526
0	975	55.00128	0.57018442105263
0	976	55.00128	0.5703744
0	977	55.00128	0.57056437894736
0	978	55.00128	0.57075435789473
0	979	55.00128	0.5709443368421
0	980	55.0016	0.57113431578947
0	981	55.0016	0.57132429473684
0	982	55.0016	0.57151427368421
0	983	55.0016	0.57170425263157
0	984	55.00192	0.57189423157894
0	985	55.00224	0.57208421052631
0	986	55.00224	0.57227418947368
0	987	55.00224	0.57246416842105
0	988	55.00256	0.57265414736842
0	989	55.00256	0.57284412631578
0	990	55.00256	0.57303410526315
0	991	55.00256	0.57322408421052
0	992	55.00288	0.57341406315789
0	993	55.0032	0.57360404210526
0	994	55.0032	0.57379402105263
0	995	55.00352	0.57398399999999
0	996	55.00352	0.57417397894736
0	997	55.00384	0.57436395789473
0	998	55.00384	0.5745539368421
0	999	55.00384	0.57474391578947
0	1000	55.00384	0.57493389473684
0	1001	55.00416	0.5751238736842
0	1002	55.00448	0.57531385263157
0	1007	55.0048	0.57550383157894
0	1009	55.00512	0.57569381052631
0	1010	55.00512	0.58123781052631
0	1011	55.00512	0.56633427692307
0	1013	55.00544	0.56651938461538
0	1014	55.00544	0.57192123076922
0	1015	55.00544	0.55762319999999
0	1016	55.00576	0.55780367999999
0	1017	55.00576	0.55798415999999
0	1018	55.00576	0.55816463999999
0	1019	55.00608	0.55834511999999
0	1020	55.0064	0.55852559999999
0	1021	55.00672	0.55870607999999
0	1022	55.00672	0.55888655999999
0	1023	55.00672	0.55906703999999
0	1024	55.00736	0.55924751999999
0	1025	55.008	0.55942799999999
0	1026	55.00864	0.55960847999999
0	1031	55.01056	0.55978895999999
0	1033	55.01088	0.56505575999999
0	1034	55.01088	0.55127391219512
0	1037	60	0.5514499902439
0	1039	60.00032	0.55162606829268
0	1040	60.00032	0.55180214634146
0	1041	60.00032	0.55694048780487
0	1042	60.00032	0.54367999999999
0	1045	60.00064	0.54385188571428
0	1046	60.00064	0.54402377142857
0	1047	60.00064	0.54419565714285
0	1048	60.00064	0.54436754285714
0	1049	60.00064	0.54938354285714
0	1050	60.00064	0.55439954285714
0	1053	60.00096	0.55457142857142
0	1054	60.00128	0.55474331428571
0	1055	60.00128	0.55491519999999
0	1056	60.0016	0.55508708571428
0	1057	60.0016	0.55525897142856
0	1058	60.0016	0.55543085714285
0	1059	60.0016	0.55560274285714
0	1060	60.0016	0.55577462857142
0	1061	60.00192	0.55594651428571
0	1062	60.00192	0.55611839999999
0	1063	60.00192	0.55629028571428
0	1064	60.00192	0.55646217142856
0	1065	60.00192	0.55663405714285
0	1066	60.00192	0.55680594285714
0	1067	60.00256	0.55697782857142
0	1068	60.00256	0.55714971428571
0	1069	60.00256	0.55732159999999
0	1070	60.00288	0.55749348571428
0	1071	60.00352	0.55766537142856
0	1072	60.00352	0.55783725714285
0	1073	60.00352	0.55800914285714
0	1074	60.00384	0.55818102857142
0	1075	60.00384	0.55835291428571
0	1076	60.00384	0.55852479999999
0	1077	60.00448	0.55869668571428
0	1080	60.0048	0.55886857142856
0	1085	60.00512	0.55904045714285
0	1086	60.00512	0.55921234285714
0	1087	60.00512	0.55938422857142
0	1091	60.00544	0.56440022857142
0	1092	60.00544	0.56941622857142
0	1093	60.00544	0.57443222857142
0	1094	60.00544	0.56107333953488
0	1097	60.00576	0.56124122790697
0	1098	60.00576	0.56140911627906
0	1099	60.00672	0.56157700465116
0	1100	60.00672	0.56174489302325
0	1101	60.00704	0.56191278139534
0	1102	60.00704	0.56208066976743
0	1103	60.00832	0.56224855813953
0	1104	60.00864	0.56241644651162
0	1105	60.00896	0.56258433488371
0	1106	60.00928	0.56275222325581
0	1113	60.00992	0.5629201116279
0	1115	60.01024	0.56781946046511
0	1116	60.01024	0.55491447272727
0	1117	60.01088	0.55507854545454
0	1118	60.0112	0.55524261818181
0	1119	60.01184	0.55540669090908
0	1122	65	0.55557076363636
0	1123	65	0.55573483636363
0	1124	65	0.5558989090909
0	1129	65.00032	0.55606298181817
0	1130	65.00032	0.55622705454545
0	1131	65.00032	0.56101505454545
0	1132	65.00032	0.56580305454545
0	1133	65.00032	0.57059105454545
0	1137	65.00064	0.57075512727272
0	1138	65.00064	0.57091919999999
0	1139	65.00096	0.57108327272726
0	1140	65.00128	0.57124734545454
0	1141	65.00128	0.57141141818181
0	1142	65.00128	0.57157549090908
0	1143	65.00128	0.57173956363636
0	1144	65.0016	0.57190363636363
0	1145	65.0016	0.5720677090909
0	1146	65.00192	0.57223178181817
0	1147	65.00192	0.57239585454545
0	1148	65.00192	0.57255992727272
0	1149	65.00224	0.57272399999999
0	1150	65.00224	0.57288807272726
0	1151	65.00224	0.57305214545454
0	1152	65.00224	0.57321621818181
0	1153	65.00256	0.57338029090908
0	1154	65.00288	0.57354436363635
0	1155	65.00288	0.57370843636363
0	1156	65.0032	0.5738725090909
0	1157	65.00352	0.57403658181817
0	1158	65.00352	0.57420065454545
0	1159	65.00384	0.57436472727272
0	1160	65.00416	0.57452879999999
0	1161	65.00416	0.57469287272726
0	1170	65.0048	0.57485694545454
0	1171	65.0048	0.57502101818181
0	1174	65.00512	0.57518509090908
0	1175	65.00512	0.57534916363635
0	1176	65.00512	0.58013716363635
0	1177	65.00512	0.58492516363635
0	1182	65.00544	0.58971316363635
0	1183	65.00544	0.59450116363635
0	1186	65.00576	0.59466523636363
0	1187	65.00576	0.5948293090909
0	1188	65.00576	0.59499338181817
0	1189	65.00576	0.59515745454545
0	1190	65.00608	0.59532152727272
0	1191	65.0064	0.59548559999999
0	1192	65.00672	0.59564967272726
0	1193	65.00704	0.59581374545454
0	1194	65.00704	0.59597781818181
0	1195	65.00736	0.59614189090908
0	1196	65.008	0.59630596363635
0	1197	65.00832	0.59647003636363
0	1198	65.00928	0.5966341090909
0	1199	65.00928	0.59679818181817
0	1208	65.01152	0.59696225454544
0	1210	65.01184	0.60175025454544
0	1211	65.01184	0.58837802666666
0	1214	70	0.58853845333332
0	1216	70.00032	0.58869887999999
0	1217	70.00032	0.58885930666666
0	1218	70.00032	0.58901973333332
0	1219	70.00032	0.59370133333332
0	1220	70.00032	0.58079478260869
0	1222	70.00064	0.58537460869564
0	1223	70.00064	0.57291982978722
0	1224	70.00096	0.57307342978722
0	1225	70.00096	0.57322702978722
0	1226	70.00096	0.57338062978722
0	1227	70.0016	0.57353422978722
0	1228	70.0016	0.57368782978722
0	1229	70.0016	0.57384142978722
0	1230	70.0016	0.57399502978722
0	1231	70.00192	0.57414862978722
0	1232	70.00224	0.57430222978722
0	1233	70.00224	0.57445582978722
0	1234	70.00224	0.57460942978722
0	1235	70.00224	0.57476302978722
0	1236	70.00256	0.57491662978722
0	1237	70.00256	0.57507022978722
0	1238	70.00256	0.57522382978722
0	1239	70.00256	0.57537742978722
0	1240	70.00256	0.57553102978722
0	1241	70.00288	0.57568462978722
0	1242	70.00352	0.57583822978722
0	1243	70.00416	0.57599182978722
0	1244	70.00416	0.57614542978722
0	1245	70.00448	0.57629902978722
0	1248	70.0048	0.57645262978722
0	1249	70.0048	0.57660622978722
0	1253	70.00512	0.57675982978722
0	1254	70.00512	0.58124221276595
0	1255	70.00512	0.56913299999999
0	1256	70.00544	0.56928339999999
0	1257	70.00544	0.56943379999999
0	1258	70.00544	0.56958419999999
0	1261	70.00576	0.56973459999999
0	1262	70.00576	0.56988499999999
0	1263	70.00576	0.57003539999999
0	1264	70.00576	0.57018579999999
0	1265	70.00576	0.57457479999999
0	1266	70.00576	0.57896379999999
0	1269	70.00608	0.57911419999999
0	1270	70.00608	0.57926459999999
0	1271	70.00608	0.57941499999999
0	1272	70.00608	0.57956539999999
0	1273	70.00704	0.57971579999999
0	1274	70.00736	0.57986619999999
0	1275	70.00736	0.58001659999999
0	1276	70.00736	0.58016699999999
0	1277	70.00768	0.58031739999999
0	1278	70.00896	0.58046779999999
0	1281	70.0096	0.58061819999999
0	1286	70.01056	0.58076859999999
0	1287	70.01056	0.58091899999999
0	1290	70.01088	0.58530799999999
0	1291	70.01088	0.58969699999999
0	1292	70.01088	0.57766236734693
0	1293	70.01088	0.56610911999999
0	1294	70.0112	0.56625350399999
0	1299	75.00032	0.56639788799999
0	1300	75.00032	0.56654227199999
0	1301	75.00032	0.56668665599999
0	1305	75.00064	0.56683103999999
0	1306	75.00064	0.56697542399999
0	1307	75.00064	0.57118886399999
0	1308	75.00064	0.57540230399999