file 106891 1699359929                                          
version 2
run Static-0-20231031-14:10:31-9996
attr configname Static
attr datetime 20231031-14:10:31
attr datetimef 20231031-141031
attr experiment Static
attr inifile omnetpp.ini
attr iterationvars ""
attr iterationvarsd ""
attr iterationvarsf ""
attr measurement ""
attr network AODVNetwork
attr processid 9996
attr repetition 0
attr replication #0
attr resultdir results
attr runnumber 0
attr seedset 0
config image-path ../../images
config description "routing without mobility"
config *.numHosts 20
config *.host[*].wlan[*].radio.transmitter.communicationRange 250m
config *.host[0].app[0].destAddr "\"host[1](ipv4)\""
config **.host[*].mobility.typename StationaryMobility
config *.host[0].numApps 1
config *.host[0].app[0].typename PingApp
config *.host[0].app[0].startTime uniform(1s,5s)
config *.host[0].app[0].printPing true
config network AODVNetwork
config num-rngs 3
config **.mobility.rng-0 1
config **.wlan[*].mac.rng-0 2
config **.wlan[*].typename AckingWirelessInterface
config **.wlan[*].bitrate 2Mbps
config **.wlan[*].mac.headerLength 23B
config **.wlan[*].radio.typename UnitDiskRadio
config **.wlan[*].radio.transmitter.headerLength 96b
config **.wlan[*].radio.transmitter.interferenceRange 0m
config **.wlan[*].radio.transmitter.detectionRange 0m
config **.wlan[*].radio.receiver.ignoreInterference true
config **.mobility.constraintAreaMinZ 0m
config **.mobility.constraintAreaMaxZ 0m
config **.mobility.constraintAreaMinX 0m
config **.mobility.constraintAreaMinY 0m
config **.mobility.constraintAreaMaxX 600m
config **.mobility.constraintAreaMaxY 600m
config **.hasStatus true

vector 0 AODVNetwork.host[0].wlan[0].queue queueLength:vector ETV
attr autoWarmupFilter false
attr interpolationmode sample-hold
attr recordingmode vector
attr source "warmup(atomic(constant0(packetPushEnded) + count(packetPushStarted) - count(packetPulled) - count(packetRemoved) - count(packetDropped)))"
attr title "queue length"
attr unit pk
0	42093 40 0 0 0 0 5 0 0 0 0
0	79060 69 107 975 3.198218232299 3.205828792989 3 0 0 0 0
vector 1 AODVNetwork.host[0].wlan[0].queue queueBitLength:vector ETV
attr autoWarmupFilter false
attr interpolationmode sample-hold
attr recordingmode vector
attr source "warmup(atomic(constant0(packetPushEnded) + sum(packetLength(packetPushStarted)) - sum(packetLength(packetPulled)) - sum(packetLength(packetRemoved)) - sum(packetLength(packetDropped))))"
attr title "queue bit length"
attr unit b
1	42133 40 0 0 0 0 5 0 0 0 0
1	79129 69 107 975 3.198218232299 3.205828792989 3 0 0 0 0
vector 2 AODVNetwork.host[0].udp passedUpPk:vector(count) ETV
attr interpolationmode none
attr recordingmode vector(count)
attr source packetSentToUpper
attr title "packets passed up, count"
2	42173 8 0 0 0 0 1 0 0 0 0
2	79198 115 254 973 3.201034080661 3.205828792989 5 1 5 15 55
vector 3 AODVNetwork.host[0].udp droppedPkWrongPort:vector(count) ETV
attr interpolationmode none
attr recordingmode vector(count)
attr source packetDropReasonIsNoPortFound(packetDropped)
attr title "packets dropped (wrong port), count"
3	42181 8 0 0 0 0 1 0 0 0 0
vector 4 AODVNetwork.host[0].udp droppedPkBadChecksum:vector(count) ETV
attr interpolationmode none
attr recordingmode vector(count)
attr source packetDropReasonIsIncorrectlyReceived(packetDropped)
attr title "packets dropped (checksum error), count"
4	42189 8 0 0 0 0 1 0 0 0 0
vector 5 AODVNetwork.host[1].wlan[0].queue queueLength:vector ETV
attr autoWarmupFilter false
attr interpolationmode sample-hold
attr recordingmode vector
attr source "warmup(atomic(constant0(packetPushEnded) + count(packetPushStarted) - count(packetPulled) - count(packetRemoved) - count(packetDropped)))"
attr title "queue length"
attr unit pk
5	42197 40 0 0 0 0 5 0 0 0 0
5	79313 70 263 1082 3.201034123339 3.206782410045 3 0 0 0 0
vector 6 AODVNetwork.host[1].wlan[0].queue queueBitLength:vector ETV
attr autoWarmupFilter false
attr interpolationmode sample-hold
attr recordingmode vector
attr source "warmup(atomic(constant0(packetPushEnded) + sum(packetLength(packetPushStarted)) - sum(packetLength(packetPulled)) - sum(packetLength(packetRemoved)) - sum(packetLength(packetDropped))))"
attr title "queue bit length"
attr unit b
6	42237 40 0 0 0 0 5 0 0 0 0
6	79383 70 263 1082 3.201034123339 3.206782410045 3 0 0 0 0
vector 7 AODVNetwork.host[1].udp passedUpPk:vector(count) ETV
attr interpolationmode none
attr recordingmode vector(count)
attr source packetSentToUpper
attr title "packets passed up, count"
7	42277 8 0 0 0 0 1 0 0 0 0
7	79453 23 259 259 3.201034123339 3.201034123339 1 1 1 1 1
vector 8 AODVNetwork.host[1].udp droppedPkWrongPort:vector(count) ETV
attr interpolationmode none
attr recordingmode vector(count)
attr source packetDropReasonIsNoPortFound(packetDropped)
attr title "packets dropped (wrong port), count"
8	42285 8 0 0 0 0 1 0 0 0 0
vector 9 AODVNetwork.host[1].udp droppedPkBadChecksum:vector(count) ETV
attr interpolationmode none
attr recordingmode vector(count)
attr source packetDropReasonIsIncorrectlyReceived(packetDropped)
attr title "packets dropped (checksum error), count"
9	42293 8 0 0 0 0 1 0 0 0 0
vector 10 AODVNetwork.host[2].wlan[0].queue queueLength:vector ETV
attr autoWarmupFilter false
attr interpolationmode sample-hold
attr recordingmode vector
attr source "warmup(atomic(constant0(packetPushEnded) + count(packetPushStarted) - count(packetPulled) - count(packetRemoved) - count(packetDropped)))"
attr title "queue length"
attr unit pk
10	42301 45 0 0 0 0 5 0 0 0 0
vector 11 AODVNetwork.host[2].wlan[0].queue queueBitLength:vector ETV
attr autoWarmupFilter false
attr interpolationmode sample-hold
attr recordingmode vector
attr source "warmup(atomic(constant0(packetPushEnded) + sum(packetLength(packetPushStarted)) - sum(packetLength(packetPulled)) - sum(packetLength(packetRemoved)) - sum(packetLength(packetDropped))))"
attr title "queue bit length"
attr unit b
11	42346 45 0 0 0 0 5 0 0 0 0
vector 12 AODVNetwork.host[2].udp passedUpPk:vector(count) ETV
attr interpolationmode none
attr recordingmode vector(count)
attr source packetSentToUpper
attr title "packets passed up, count"
12	42391 9 0 0 0 0 1 0 0 0 0
12	79476 48 249 736 3.201034072146 3.203136738776 2 1 2 3 5
vector 13 AODVNetwork.host[2].udp droppedPkWrongPort:vector(count) ETV
attr interpolationmode none
attr recordingmode vector(count)
attr source packetDropReasonIsNoPortFound(packetDropped)
attr title "packets dropped (wrong port), count"
13	42400 9 0 0 0 0 1 0 0 0 0
vector 14 AODVNetwork.host[2].udp droppedPkBadChecksum:vector(count) ETV
attr interpolationmode none
attr recordingmode vector(count)
attr source packetDropReasonIsIncorrectlyReceived(packetDropped)
attr title "packets dropped (checksum error), count"
14	42409 9 0 0 0 0 1 0 0 0 0
vector 15 AODVNetwork.host[3].wlan[0].queue queueLength:vector ETV
attr autoWarmupFilter false
attr interpolationmode sample-hold
attr recordingmode vector
attr source "warmup(atomic(constant0(packetPushEnded) + count(packetPushStarted) - count(packetPulled) - count(packetRemoved) - count(packetDropped)))"
attr title "queue length"
attr unit pk
15	42418 45 0 0 0 0 5 0 0 0 0
15	79524 24 666 666 3.202856635025 3.202856635025 1 0 0 0 0
vector 16 AODVNetwork.host[3].wlan[0].queue queueBitLength:vector ETV
attr autoWarmupFilter false
attr interpolationmode sample-hold
attr recordingmode vector
attr source "warmup(atomic(constant0(packetPushEnded) + sum(packetLength(packetPushStarted)) - sum(packetLength(packetPulled)) - sum(packetLength(packetRemoved)) - sum(packetLength(packetDropped))))"
attr title "queue bit length"
attr unit b
16	42463 45 0 0 0 0 5 0 0 0 0
16	79548 24 666 666 3.202856635025 3.202856635025 1 0 0 0 0
vector 17 AODVNetwork.host[3].udp passedUpPk:vector(count) ETV
attr interpolationmode none
attr recordingmode vector(count)
attr source packetSentToUpper
attr title "packets passed up, count"
17	42508 9 0 0 0 0 1 0 0 0 0
17	79572 119 147 691 3.198566906926 3.203136291373 5 1 5 15 55
vector 18 AODVNetwork.host[3].udp droppedPkWrongPort:vector(count) ETV
attr interpolationmode none
attr recordingmode vector(count)
attr source packetDropReasonIsNoPortFound(packetDropped)
attr title "packets dropped (wrong port), count"
18	42517 9 0 0 0 0 1 0 0 0 0
vector 19 AODVNetwork.host[3].udp droppedPkBadChecksum:vector(count) ETV
attr interpolationmode none
attr recordingmode vector(count)
attr source packetDropReasonIsIncorrectlyReceived(packetDropped)
attr title "packets dropped (checksum error), count"
19	42526 9 0 0 0 0 1 0 0 0 0
vector 20 AODVNetwork.host[4].wlan[0].queue queueLength:vector ETV
attr autoWarmupFilter false
attr interpolationmode sample-hold
attr recordingmode vector
attr source "warmup(atomic(constant0(packetPushEnded) + count(packetPushStarted) - count(packetPulled) - count(packetRemoved) - count(packetDropped)))"
attr title "queue length"
attr unit pk
20	42535 45 0 0 0 0 5 0 0 0 0
vector 21 AODVNetwork.host[4].wlan[0].queue queueBitLength:vector ETV
attr autoWarmupFilter false
attr interpolationmode sample-hold
attr recordingmode vector
attr source "warmup(atomic(constant0(packetPushEnded) + sum(packetLength(packetPushStarted)) - sum(packetLength(packetPulled)) - sum(packetLength(packetRemoved)) - sum(packetLength(packetDropped))))"
attr title "queue bit length"
attr unit b
21	42580 45 0 0 0 0 5 0 0 0 0
vector 22 AODVNetwork.host[4].udp passedUpPk:vector(count) ETV
attr interpolationmode none
attr recordingmode vector(count)
attr source packetSentToUpper
attr title "packets passed up, count"
22	42625 9 0 0 0 0 1 0 0 0 0
22	79691 48 234 774 3.201033850879 3.203152022573 2 1 2 3 5
vector 23 AODVNetwork.host[4].udp droppedPkWrongPort:vector(count) ETV
attr interpolationmode none
attr recordingmode vector(count)
attr source packetDropReasonIsNoPortFound(packetDropped)
attr title "packets dropped (wrong port), count"
23	42634 9 0 0 0 0 1 0 0 0 0
vector 24 AODVNetwork.host[4].udp droppedPkBadChecksum:vector(count) ETV
attr interpolationmode none
attr recordingmode vector(count)
attr source packetDropReasonIsIncorrectlyReceived(packetDropped)
attr title "packets dropped (checksum error), count"
24	42643 9 0 0 0 0 1 0 0 0 0
vector 25 AODVNetwork.host[5].wlan[0].queue queueLength:vector ETV
attr autoWarmupFilter false
attr interpolationmode sample-hold
attr recordingmode vector
attr source "warmup(atomic(constant0(packetPushEnded) + count(packetPushStarted) - count(packetPulled) - count(packetRemoved) - count(packetDropped)))"
attr title "queue length"
attr unit pk
25	42652 45 0 0 0 0 5 0 0 0 0
vector 26 AODVNetwork.host[5].wlan[0].queue queueBitLength:vector ETV
attr autoWarmupFilter false
attr interpolationmode sample-hold
attr recordingmode vector
attr source "warmup(atomic(constant0(packetPushEnded) + sum(packetLength(packetPushStarted)) - sum(packetLength(packetPulled)) - sum(packetLength(packetRemoved)) - sum(packetLength(packetDropped))))"
attr title "queue bit length"
attr unit b
26	42697 45 0 0 0 0 5 0 0 0 0
vector 27 AODVNetwork.host[5].udp passedUpPk:vector(count) ETV
attr interpolationmode none
attr recordingmode vector(count)
attr source packetSentToUpper
attr title "packets passed up, count"
27	42742 9 0 0 0 0 1 0 0 0 0
27	79739 24 793 793 3.203205278746 3.203205278746 1 1 1 1 1
vector 28 AODVNetwork.host[5].udp droppedPkWrongPort:vector(count) ETV
attr interpolationmode none
attr recordingmode vector(count)
attr source packetDropReasonIsNoPortFound(packetDropped)
attr title "packets dropped (wrong port), count"
28	42751 9 0 0 0 0 1 0 0 0 0
vector 29 AODVNetwork.host[5].udp droppedPkBadChecksum:vector(count) ETV
attr interpolationmode none
attr recordingmode vector(count)
attr source packetDropReasonIsIncorrectlyReceived(packetDropped)
attr title "packets dropped (checksum error), count"
29	42760 9 0 0 0 0 1 0 0 0 0
vector 30 AODVNetwork.host[6].wlan[0].queue queueLength:vector ETV
attr autoWarmupFilter false
attr interpolationmode sample-hold
attr recordingmode vector
attr source "warmup(atomic(constant0(packetPushEnded) + count(packetPushStarted) - count(packetPulled) - count(packetRemoved) - count(packetDropped)))"
attr title "queue length"
attr unit pk
30	42769 45 0 0 0 0 5 0 0 0 0
vector 31 AODVNetwork.host[6].wlan[0].queue queueBitLength:vector ETV
attr autoWarmupFilter false
attr interpolationmode sample-hold
attr recordingmode vector
attr source "warmup(atomic(constant0(packetPushEnded) + sum(packetLength(packetPushStarted)) - sum(packetLength(packetPulled)) - sum(packetLength(packetRemoved)) - sum(packetLength(packetDropped))))"
attr title "queue bit length"
attr unit b
31	42814 45 0 0 0 0 5 0 0 0 0
vector 32 AODVNetwork.host[6].udp passedUpPk:vector(count) ETV
attr interpolationmode none
attr recordingmode vector(count)
attr source packetSentToUpper
attr title "packets passed up, count"
32	42859 9 0 0 0 0 1 0 0 0 0
32	79763 48 229 761 3.201033817018 3.203151912795 2 1 2 3 5
vector 33 AODVNetwork.host[6].udp droppedPkWrongPort:vector(count) ETV
attr interpolationmode none
attr recordingmode vector(count)
attr source packetDropReasonIsNoPortFound(packetDropped)
attr title "packets dropped (wrong port), count"
33	42868 9 0 0 0 0 1 0 0 0 0
vector 34 AODVNetwork.host[6].udp droppedPkBadChecksum:vector(count) ETV
attr interpolationmode none
attr recordingmode vector(count)
attr source packetDropReasonIsIncorrectlyReceived(packetDropped)
attr title "packets dropped (checksum error), count"
34	42877 9 0 0 0 0 1 0 0 0 0
vector 35 AODVNetwork.host[7].wlan[0].queue queueLength:vector ETV
attr autoWarmupFilter false
attr interpolationmode sample-hold
attr recordingmode vector
attr source "warmup(atomic(constant0(packetPushEnded) + count(packetPushStarted) - count(packetPulled) - count(packetRemoved) - count(packetDropped)))"
attr title "queue length"
attr unit pk
35	42886 45 0 0 0 0 5 0 0 0 0
vector 36 AODVNetwork.host[7].wlan[0].queue queueBitLength:vector ETV
attr autoWarmupFilter false
attr interpolationmode sample-hold
attr recordingmode vector
attr source "warmup(atomic(constant0(packetPushEnded) + sum(packetLength(packetPushStarted)) - sum(packetLength(packetPulled)) - sum(packetLength(packetRemoved)) - sum(packetLength(packetDropped))))"
attr title "queue bit length"
attr unit b
36	42931 45 0 0 0 0 5 0 0 0 0
vector 37 AODVNetwork.host[7].udp passedUpPk:vector(count) ETV
attr interpolationmode none
attr recordingmode vector(count)
attr source packetSentToUpper
attr title "packets passed up, count"
37	42976 9 0 0 0 0 1 0 0 0 0
37	79811 72 214 766 3.201033764563 3.203151935244 3 1 3 6 14
vector 38 AODVNetwork.host[7].udp droppedPkWrongPort:vector(count) ETV
attr interpolationmode none
attr recordingmode vector(count)
attr source packetDropReasonIsNoPortFound(packetDropped)
attr title "packets dropped (wrong port), count"
38	42985 9 0 0 0 0 1 0 0 0 0
vector 39 AODVNetwork.host[7].udp droppedPkBadChecksum:vector(count) ETV
attr interpolationmode none
attr recordingmode vector(count)
attr source packetDropReasonIsIncorrectlyReceived(packetDropped)
attr title "packets dropped (checksum error), count"
39	42994 9 0 0 0 0 1 0 0 0 0
vector 40 AODVNetwork.host[8].wlan[0].queue queueLength:vector ETV
attr autoWarmupFilter false
attr interpolationmode sample-hold
attr recordingmode vector
attr source "warmup(atomic(constant0(packetPushEnded) + count(packetPushStarted) - count(packetPulled) - count(packetRemoved) - count(packetDropped)))"
attr title "queue length"
attr unit pk
40	43003 45 0 0 0 0 5 0 0 0 0
40	79883 24 618 618 3.202788029309 3.202788029309 1 0 0 0 0
vector 41 AODVNetwork.host[8].wlan[0].queue queueBitLength:vector ETV
attr autoWarmupFilter false
attr interpolationmode sample-hold
attr recordingmode vector
attr source "warmup(atomic(constant0(packetPushEnded) + sum(packetLength(packetPushStarted)) - sum(packetLength(packetPulled)) - sum(packetLength(packetRemoved)) - sum(packetLength(packetDropped))))"
attr title "queue bit length"
attr unit b
41	43048 45 0 0 0 0 5 0 0 0 0
41	79907 24 618 618 3.202788029309 3.202788029309 1 0 0 0 0
vector 42 AODVNetwork.host[8].udp passedUpPk:vector(count) ETV
attr interpolationmode none
attr recordingmode vector(count)
attr source packetSentToUpper
attr title "packets passed up, count"
42	43093 9 0 0 0 0 1 0 0 0 0
42	79931 120 137 753 3.198566700589 3.203151571467 5 1 5 15 55
vector 43 AODVNetwork.host[8].udp droppedPkWrongPort:vector(count) ETV
attr interpolationmode none
attr recordingmode vector(count)
attr source packetDropReasonIsNoPortFound(packetDropped)
attr title "packets dropped (wrong port), count"
43	43102 9 0 0 0 0 1 0 0 0 0
vector 44 AODVNetwork.host[8].udp droppedPkBadChecksum:vector(count) ETV
attr interpolationmode none
attr recordingmode vector(count)
attr source packetDropReasonIsIncorrectlyReceived(packetDropped)
attr title "packets dropped (checksum error), count"
44	43111 9 0 0 0 0 1 0 0 0 0
vector 45 AODVNetwork.host[9].wlan[0].queue queueLength:vector ETV
attr autoWarmupFilter false
attr interpolationmode sample-hold
attr recordingmode vector
attr source "warmup(atomic(constant0(packetPushEnded) + count(packetPushStarted) - count(packetPulled) - count(packetRemoved) - count(packetDropped)))"
attr title "queue length"
attr unit pk
45	43120 45 0 0 0 0 5 0 0 0 0
vector 46 AODVNetwork.host[9].wlan[0].queue queueBitLength:vector ETV
attr autoWarmupFilter false
attr interpolationmode sample-hold
attr recordingmode vector
attr source "warmup(atomic(constant0(packetPushEnded) + sum(packetLength(packetPushStarted)) - sum(packetLength(packetPulled)) - sum(packetLength(packetRemoved)) - sum(packetLength(packetDropped))))"
attr title "queue bit length"
attr unit b
46	43165 45 0 0 0 0 5 0 0 0 0
vector 47 AODVNetwork.host[9].udp passedUpPk:vector(count) ETV
attr interpolationmode none
attr recordingmode vector(count)
attr source packetSentToUpper
attr title "packets passed up, count"
47	43210 9 0 0 0 0 1 0 0 0 0
47	80051 48 504 731 3.201929105359 3.203136725455 2 1 2 3 5
vector 48 AODVNetwork.host[9].udp droppedPkWrongPort:vector(count) ETV
attr interpolationmode none
attr recordingmode vector(count)
attr source packetDropReasonIsNoPortFound(packetDropped)
attr title "packets dropped (wrong port), count"
48	43219 9 0 0 0 0 1 0 0 0 0
vector 49 AODVNetwork.host[9].udp droppedPkBadChecksum:vector(count) ETV
attr interpolationmode none
attr recordingmode vector(count)
attr source packetDropReasonIsIncorrectlyReceived(packetDropped)
attr title "packets dropped (checksum error), count"
49	43228 9 0 0 0 0 1 0 0 0 0
vector 50 AODVNetwork.host[10].wlan[0].queue queueLength:vector ETV
attr autoWarmupFilter false
attr interpolationmode sample-hold
attr recordingmode vector
attr source "warmup(atomic(constant0(packetPushEnded) + count(packetPushStarted) - count(packetPulled) - count(packetRemoved) - count(packetDropped)))"
attr title "queue length"
attr unit pk
50	43237 45 0 0 0 0 5 0 0 0 0
50	80099 24 642 642 3.202803233161 3.202803233161 1 0 0 0 0
vector 51 AODVNetwork.host[10].wlan[0].queue queueBitLength:vector ETV
attr autoWarmupFilter false
attr interpolationmode sample-hold
attr recordingmode vector
attr source "warmup(atomic(constant0(packetPushEnded) + sum(packetLength(packetPushStarted)) - sum(packetLength(packetPulled)) - sum(packetLength(packetRemoved)) - sum(packetLength(packetDropped))))"
attr title "queue bit length"
attr unit b
51	43282 45 0 0 0 0 5 0 0 0 0
51	80123 24 642 642 3.202803233161 3.202803233161 1 0 0 0 0
vector 52 AODVNetwork.host[10].udp passedUpPk:vector(count) ETV
attr interpolationmode none
attr recordingmode vector(count)
attr source packetSentToUpper
attr title "packets passed up, count"
52	43327 9 0 0 0 0 1 0 0 0 0
52	80147 119 157 696 3.198566974475 3.203136367615 5 1 5 15 55
vector 53 AODVNetwork.host[10].udp droppedPkWrongPort:vector(count) ETV
attr interpolationmode none
attr recordingmode vector(count)
attr source packetDropReasonIsNoPortFound(packetDropped)
attr title "packets dropped (wrong port), count"
53	43336 9 0 0 0 0 1 0 0 0 0
vector 54 AODVNetwork.host[10].udp droppedPkBadChecksum:vector(count) ETV
attr interpolationmode none
attr recordingmode vector(count)
attr source packetDropReasonIsIncorrectlyReceived(packetDropped)
attr title "packets dropped (checksum error), count"
54	43345 9 0 0 0 0 1 0 0 0 0
vector 55 AODVNetwork.host[11].wlan[0].queue queueLength:vector ETV
attr autoWarmupFilter false
attr interpolationmode sample-hold
attr recordingmode vector
attr source "warmup(atomic(constant0(packetPushEnded) + count(packetPushStarted) - count(packetPulled) - count(packetRemoved) - count(packetDropped)))"
attr title "queue length"
attr unit pk
55	43354 45 0 0 0 0 5 0 0 0 0
55	80266 24 425 425 3.201580648484 3.201580648484 1 0 0 0 0
vector 56 AODVNetwork.host[11].wlan[0].queue queueBitLength:vector ETV
attr autoWarmupFilter false
attr interpolationmode sample-hold
attr recordingmode vector
attr source "warmup(atomic(constant0(packetPushEnded) + sum(packetLength(packetPushStarted)) - sum(packetLength(packetPulled)) - sum(packetLength(packetRemoved)) - sum(packetLength(packetDropped))))"
attr title "queue bit length"
attr unit b
56	43399 45 0 0 0 0 5 0 0 0 0
56	80290 24 425 425 3.201580648484 3.201580648484 1 0 0 0 0
vector 57 AODVNetwork.host[11].udp passedUpPk:vector(count) ETV
attr interpolationmode none
attr recordingmode vector(count)
attr source packetSentToUpper
attr title "packets passed up, count"
57	43444 9 0 0 0 0 1 0 0 0 0
57	80314 48 142 706 3.198566831632 3.203136508048 2 1 2 3 5
vector 58 AODVNetwork.host[11].udp droppedPkWrongPort:vector(count) ETV
attr interpolationmode none
attr recordingmode vector(count)
attr source packetDropReasonIsNoPortFound(packetDropped)
attr title "packets dropped (wrong port), count"
58	43453 9 0 0 0 0 1 0 0 0 0
vector 59 AODVNetwork.host[11].udp droppedPkBadChecksum:vector(count) ETV
attr interpolationmode none
attr recordingmode vector(count)
attr source packetDropReasonIsIncorrectlyReceived(packetDropped)
attr title "packets dropped (checksum error), count"
59	43462 9 0 0 0 0 1 0 0 0 0
vector 60 AODVNetwork.host[12].wlan[0].queue queueLength:vector ETV
attr autoWarmupFilter false
attr interpolationmode sample-hold
attr recordingmode vector
attr source "warmup(atomic(constant0(packetPushEnded) + count(packetPushStarted) - count(packetPulled) - count(packetRemoved) - count(packetDropped)))"
attr title "queue length"
attr unit pk
60	43471 45 0 0 0 0 5 0 0 0 0
vector 61 AODVNetwork.host[12].wlan[0].queue queueBitLength:vector ETV
attr autoWarmupFilter false
attr interpolationmode sample-hold
attr recordingmode vector
attr source "warmup(atomic(constant0(packetPushEnded) + sum(packetLength(packetPushStarted)) - sum(packetLength(packetPulled)) - sum(packetLength(packetRemoved)) - sum(packetLength(packetDropped))))"
attr title "queue bit length"
attr unit b
61	43516 45 0 0 0 0 5 0 0 0 0
vector 62 AODVNetwork.host[12].udp passedUpPk:vector(count) ETV
attr interpolationmode none
attr recordingmode vector(count)
attr source packetSentToUpper
attr title "packets passed up, count"
62	43561 9 0 0 0 0 1 0 0 0 0
62	80362 48 514 726 3.201929166649 3.203136683214 2 1 2 3 5
vector 63 AODVNetwork.host[12].udp droppedPkWrongPort:vector(count) ETV
attr interpolationmode none
attr recordingmode vector(count)
attr source packetDropReasonIsNoPortFound(packetDropped)
attr title "packets dropped (wrong port), count"
63	43570 9 0 0 0 0 1 0 0 0 0
vector 64 AODVNetwork.host[12].udp droppedPkBadChecksum:vector(count) ETV
attr interpolationmode none
attr recordingmode vector(count)
attr source packetDropReasonIsIncorrectlyReceived(packetDropped)
attr title "packets dropped (checksum error), count"
64	43579 9 0 0 0 0 1 0 0 0 0
vector 65 AODVNetwork.host[13].wlan[0].queue queueLength:vector ETV
attr autoWarmupFilter false
attr interpolationmode sample-hold
attr recordingmode vector
attr source "warmup(atomic(constant0(packetPushEnded) + count(packetPushStarted) - count(packetPulled) - count(packetRemoved) - count(packetDropped)))"
attr title "queue length"
attr unit pk
65	43588 45 0 0 0 0 5 0 0 0 0
vector 66 AODVNetwork.host[13].wlan[0].queue queueBitLength:vector ETV
attr autoWarmupFilter false
attr interpolationmode sample-hold
attr recordingmode vector
attr source "warmup(atomic(constant0(packetPushEnded) + sum(packetLength(packetPushStarted)) - sum(packetLength(packetPulled)) - sum(packetLength(packetRemoved)) - sum(packetLength(packetDropped))))"
attr title "queue bit length"
attr unit b
66	43633 45 0 0 0 0 5 0 0 0 0
vector 67 AODVNetwork.host[13].udp passedUpPk:vector(count) ETV
attr interpolationmode none
attr recordingmode vector(count)
attr source packetSentToUpper
attr title "packets passed up, count"
67	43678 9 0 0 0 0 1 0 0 0 0
67	80410 24 800 800 3.203205391879 3.203205391879 1 1 1 1 1
vector 68 AODVNetwork.host[13].udp droppedPkWrongPort:vector(count) ETV
attr interpolationmode none
attr recordingmode vector(count)
attr source packetDropReasonIsNoPortFound(packetDropped)
attr title "packets dropped (wrong port), count"
68	43687 9 0 0 0 0 1 0 0 0 0
vector 69 AODVNetwork.host[13].udp droppedPkBadChecksum:vector(count) ETV
attr interpolationmode none
attr recordingmode vector(count)
attr source packetDropReasonIsIncorrectlyReceived(packetDropped)
attr title "packets dropped (checksum error), count"
69	43696 9 0 0 0 0 1 0 0 0 0
vector 70 AODVNetwork.host[14].wlan[0].queue queueLength:vector ETV
attr autoWarmupFilter false
attr interpolationmode sample-hold
attr recordingmode vector
attr source "warmup(atomic(constant0(packetPushEnded) + count(packetPushStarted) - count(packetPulled) - count(packetRemoved) - count(packetDropped)))"
attr title "queue length"
attr unit pk
70	43705 45 0 0 0 0 5 0 0 0 0
vector 71 AODVNetwork.host[14].wlan[0].queue queueBitLength:vector ETV
attr autoWarmupFilter false
attr interpolationmode sample-hold
attr recordingmode vector
attr source "warmup(atomic(constant0(packetPushEnded) + sum(packetLength(packetPushStarted)) - sum(packetLength(packetPulled)) - sum(packetLength(packetRemoved)) - sum(packetLength(packetDropped))))"
attr title "queue bit length"
attr unit b
71	43750 45 0 0 0 0 5 0 0 0 0
vector 72 AODVNetwork.host[14].udp passedUpPk:vector(count) ETV
attr interpolationmode none
attr recordingmode vector(count)
attr source packetSentToUpper
attr title "packets passed up, count"
72	43795 9 0 0 0 0 1 0 0 0 0
72	80434 24 244 244 3.201034057165 3.201034057165 1 1 1 1 1
vector 73 AODVNetwork.host[14].udp droppedPkWrongPort:vector(count) ETV
attr interpolationmode none
attr recordingmode vector(count)
attr source packetDropReasonIsNoPortFound(packetDropped)
attr title "packets dropped (wrong port), count"
73	43804 9 0 0 0 0 1 0 0 0 0
vector 74 AODVNetwork.host[14].udp droppedPkBadChecksum:vector(count) ETV
attr interpolationmode none
attr recordingmode vector(count)
attr source packetDropReasonIsIncorrectlyReceived(packetDropped)
attr title "packets dropped (checksum error), count"
74	43813 9 0 0 0 0 1 0 0 0 0
vector 75 AODVNetwork.host[15].wlan[0].queue queueLength:vector ETV
attr autoWarmupFilter false
attr interpolationmode sample-hold
attr recordingmode vector
attr source "warmup(atomic(constant0(packetPushEnded) + count(packetPushStarted) - count(packetPulled) - count(packetRemoved) - count(packetDropped)))"
attr title "queue length"
attr unit pk
75	43822 45 0 0 0 0 5 0 0 0 0
vector 76 AODVNetwork.host[15].wlan[0].queue queueBitLength:vector ETV
attr autoWarmupFilter false
attr interpolationmode sample-hold
attr recordingmode vector
attr source "warmup(atomic(constant0(packetPushEnded) + sum(packetLength(packetPushStarted)) - sum(packetLength(packetPulled)) - sum(packetLength(packetRemoved)) - sum(packetLength(packetDropped))))"
attr title "queue bit length"
attr unit b
76	43867 45 0 0 0 0 5 0 0 0 0
vector 77 AODVNetwork.host[15].udp passedUpPk:vector(count) ETV
attr interpolationmode none
attr recordingmode vector(count)
attr source packetSentToUpper
attr title "packets passed up, count"
77	43912 9 0 0 0 0 1 0 0 0 0
vector 78 AODVNetwork.host[15].udp droppedPkWrongPort:vector(count) ETV
attr interpolationmode none
attr recordingmode vector(count)
attr source packetDropReasonIsNoPortFound(packetDropped)
attr title "packets dropped (wrong port), count"
78	43921 9 0 0 0 0 1 0 0 0 0
vector 79 AODVNetwork.host[15].udp droppedPkBadChecksum:vector(count) ETV
attr interpolationmode none
attr recordingmode vector(count)
attr source packetDropReasonIsIncorrectlyReceived(packetDropped)
attr title "packets dropped (checksum error), count"
79	43930 9 0 0 0 0 1 0 0 0 0
vector 80 AODVNetwork.host[16].wlan[0].queue queueLength:vector ETV
attr autoWarmupFilter false
attr interpolationmode sample-hold
attr recordingmode vector
attr source "warmup(atomic(constant0(packetPushEnded) + count(packetPushStarted) - count(packetPulled) - count(packetRemoved) - count(packetDropped)))"
attr title "queue length"
attr unit pk
80	43939 45 0 0 0 0 5 0 0 0 0
80	80458 119 179 1021 3.200685293472 3.206305580178 5 0 0 0 0
vector 81 AODVNetwork.host[16].wlan[0].queue queueBitLength:vector ETV
attr autoWarmupFilter false
attr interpolationmode sample-hold
attr recordingmode vector
attr source "warmup(atomic(constant0(packetPushEnded) + sum(packetLength(packetPushStarted)) - sum(packetLength(packetPulled)) - sum(packetLength(packetRemoved)) - sum(packetLength(packetDropped))))"
attr title "queue bit length"
attr unit b
81	43984 45 0 0 0 0 5 0 0 0 0
81	80577 119 179 1021 3.200685293472 3.206305580178 5 0 0 0 0
vector 82 AODVNetwork.host[16].udp passedUpPk:vector(count) ETV
attr interpolationmode none
attr recordingmode vector(count)
attr source packetSentToUpper
attr title "packets passed up, count"
82	44029 9 0 0 0 0 1 0 0 0 0
82	80696 95 162 711 3.198567019488 3.203136534395 4 1 4 10 30
vector 83 AODVNetwork.host[16].udp droppedPkWrongPort:vector(count) ETV
attr interpolationmode none
attr recordingmode vector(count)
attr source packetDropReasonIsNoPortFound(packetDropped)
attr title "packets dropped (wrong port), count"